<?xml version="1.0"?>
<VTKFile type="PolyData" version="0.1" byte_order="LittleEndian" header_type="UInt32" compressor="vtkZLibDataCompressor">
  <PolyData>
    <Piece NumberOfPoints="500" NumberOfVerts="0" NumberOfLines="0" NumberOfStrips="0" NumberOfPolys="0">
      <PointData Scalars="Calcium Concentration">
        <DataArray type="Float32" Name="Calcium Concentration" format="ascii" RangeMin="0.5010449886322021" RangeMax="0.571478009223938">
          0.5428429841995239 0.544750988483429 0.5472829937934875 0.5353140234947205 0.5548059940338135 0.5468159914016724
          0.5320919752120972 0.5619149804115295 0.5580859780311584 0.5452049970626831 0.5474650263786316 0.5260499715805054
          0.5397989749908447 0.54202800989151 0.5378270149230957 0.529449999332428 0.5697950124740601 0.5100499987602234
          0.5473200082778931 0.532571017742157 0.5421169996261597 0.5373520255088806 0.5482479929924011 0.5499879717826843
          0.5437520146369934 0.5264549851417542 0.5348560214042664 0.5083479881286621 0.53050297498703 0.5492600202560425
          0.5419700145721436 0.5533440113067627 0.5429829955101013 0.5176569819450378 0.5462560057640076 0.5333889722824097
          0.5437440276145935 0.5162169933319092 0.5419279932975769 0.5603449940681458 0.5455830097198486 0.5419710278511047
          0.5366039872169495 0.5482439994812012 0.5551260113716125 0.5357440114021301 0.5515469908714294 0.5359510183334351
          0.5414940118789673 0.5184469819068909 0.5308799743652344 0.558588981628418 0.5421479940414429 0.543865978717804
          0.5379890203475952 0.5354999899864197 0.5373950004577637 0.5464580059051514 0.5457000136375427 0.5318589806556702
          0.5258280038833618 0.5390719771385193 0.5291240215301514 0.5278859734535217 0.5320379734039307 0.5230799913406372
          0.5474429726600647 0.5270770192146301 0.5300559997558594 0.5527769923210144 0.5192720293998718 0.5457050204277039
          0.5193309783935547 0.5024150013923645 0.5262619853019714 0.5491120219230652 0.5424739718437195 0.5289300084114075
          0.5458080172538757 0.5520009994506836 0.5513349771499634 0.5496240258216858 0.5447930097579956 0.5225239992141724
          0.5214409828186035 0.5525019764900208 0.5361629724502563 0.5317710041999817 0.5610499978065491 0.523373007774353
          0.5517879724502563 0.5493869781494141 0.5386419892311096 0.5588409900665283 0.5503889918327332 0.5441460013389587
          0.534276008605957 0.5429940223693848 0.5385820269584656 0.535742998123169 0.5363839864730835 0.5474399924278259
          0.5245280265808105 0.5301759839057922 0.5382969975471497 0.5474730134010315 0.5425249934196472 0.5583980083465576
          0.5594660043716431 0.5115039944648743 0.5419859886169434 0.5571669936180115 0.5569350123405457 0.5042009949684143
          0.5201320052146912 0.5074089765548706 0.5252119898796082 0.5467270016670227 0.5166680216789246 0.527554988861084
          0.527679979801178 0.519465982913971 0.556302011013031 0.5529199838638306 0.539122998714447 0.5232380032539368
          0.5560470223426819 0.5238569974899292 0.5341839790344238 0.5518879890441895 0.5357909798622131 0.5539900064468384
          0.5341150164604187 0.5279970169067383 0.5249879956245422 0.5014039874076843 0.5282269716262817 0.5517240166664124
          0.5543609857559204 0.513405978679657 0.517799973487854 0.5388799905776978 0.5345900058746338 0.5433980226516724
          0.5530380010604858 0.5501109957695007 0.5201420187950134 0.5613610148429871 0.5302129983901978 0.5464619994163513
          0.5595269799232483 0.5388230085372925 0.5436879992485046 0.5467789769172668 0.5481119751930237 0.5359119772911072
          0.5364530086517334 0.533847987651825 0.5544459819793701 0.5445830225944519 0.5136680006980896 0.5425490140914917
          0.536063015460968 0.5401620268821716 0.5467090010643005 0.5625309944152832 0.5446230173110962 0.549996018409729
          0.5477859973907471 0.5214359760284424 0.5522540211677551 0.5449439883232117 0.5475010275840759 0.5349730253219604
          0.5526450276374817 0.5094469785690308 0.5295079946517944 0.5235999822616577 0.5163769721984863 0.5372660160064697
          0.525551974773407 0.520941972732544 0.5222619771957397 0.5407270193099976 0.5198690295219421 0.5464249849319458
          0.5506560206413269 0.5426669716835022 0.5427240133285522 0.5259730219841003 0.5477780103683472 0.5281779766082764
          0.5307919979095459 0.5270249843597412 0.530676007270813 0.5348169803619385 0.537136971950531 0.5534470081329346
          0.5465880036354065 0.5549319982528687 0.5115600228309631 0.5165259838104248 0.547789990901947 0.5445349812507629
          0.5158230066299438 0.5440570116043091 0.5553039908409119 0.5471310019493103 0.5431380271911621 0.5513370037078857
          0.5273129940032959 0.5447139739990234 0.5351420044898987 0.5492619872093201 0.5475649833679199 0.5310009717941284
          0.5287070274353027 0.5309579968452454 0.544776976108551 0.540503978729248 0.5145080089569092 0.5388720035552979
          0.5128870010375977 0.5261880159378052 0.5080710053443909 0.5197709798812866 0.5504869818687439 0.5606060028076172
          0.5375710129737854 0.5465959906578064 0.5324040055274963 0.5434830188751221 0.5341770052909851 0.5529800057411194
          0.5275160074234009 0.5333729982376099 0.5153999924659729 0.5146539807319641 0.5565019845962524 0.5476300120353699
          0.5039629936218262 0.5313439965248108 0.5191239714622498 0.5348190069198608 0.5413370132446289 0.5356109738349915
          0.5414159893989563 0.5391150116920471 0.5417029857635498 0.5267090201377869 0.5286999940872192 0.5530229806900024
          0.5289899706840515 0.5136510133743286 0.546999990940094 0.5428190231323242 0.5300660133361816 0.5494109988212585
          0.5505300164222717 0.5289109945297241 0.5442389845848083 0.5259580016136169 0.5491719841957092 0.565650999546051
          0.546301007270813 0.5307859778404236 0.5227149724960327 0.5260589718818665 0.5428590178489685 0.5268499851226807
          0.5248029828071594 0.5360479950904846 0.5399199724197388 0.5182480216026306 0.5410559773445129 0.5332959890365601
          0.5251749753952026 0.5424619913101196 0.5526999831199646 0.5413309931755066 0.5411440134048462 0.5323460102081299
          0.5478119850158691 0.5414609909057617 0.5472210049629211 0.5447989702224731 0.5140069723129272 0.5631589889526367
          0.571478009223938 0.517641007900238 0.5510720014572144 0.5643860101699829 0.5447220206260681 0.5268530249595642
          0.5260369777679443 0.5432630181312561 0.515919029712677 0.5527259707450867 0.5390380024909973 0.5485739707946777
          0.5591040253639221 0.5457239747047424 0.5625320076942444 0.5322790145874023 0.5312010049819946 0.5534960031509399
          0.5410950183868408 0.5474420189857483 0.540395975112915 0.5654019713401794 0.5446659922599792 0.525081992149353
          0.5302299857139587 0.5496789813041687 0.5224480032920837 0.5579990148544312 0.541500985622406 0.5309320092201233
          0.5411229729652405 0.5216439962387085 0.5389779806137085 0.5628160238265991 0.540028989315033 0.5407660007476807
          0.542743980884552 0.5232530236244202 0.5365509986877441 0.5552210211753845 0.5395510196685791 0.5273569822311401
          0.5467619895935059 0.5395200252532959 0.5586259961128235 0.544588029384613 0.5299440026283264 0.5322759747505188
          0.5477340221405029 0.5130770206451416 0.5355679988861084 0.5293930172920227 0.550475001335144 0.5425379872322083
          0.5373669862747192 0.5495610237121582 0.529558002948761 0.5477859973907471 0.5365080237388611 0.527571976184845
          0.5534700155258179 0.5127570033073425 0.5423160195350647 0.5294889807701111 0.5025489926338196 0.5457050204277039
          0.5247470140457153 0.5512300133705139 0.5462819933891296 0.5638890266418457 0.5579360127449036 0.5010449886322021
          0.5466610193252563 0.525825023651123 0.5422279834747314 0.5536620020866394 0.5329629778862 0.5514580011367798
          0.5418490171432495 0.5270929932594299 0.5495579838752747 0.545320987701416 0.5543889999389648 0.5530999898910522
          0.5402060151100159 0.5503460168838501 0.5344679951667786 0.5393750071525574 0.5522029995918274 0.535722017288208
          0.5578410029411316 0.5617449879646301 0.5333269834518433 0.560359001159668 0.5451989769935608 0.5466510057449341
          0.5321779847145081 0.5161359906196594 0.5572530031204224 0.548009991645813 0.5490769743919373 0.551472008228302
          0.542277991771698 0.5424249768257141 0.5554689764976501 0.5599030256271362 0.5348219871520996 0.5480329990386963
          0.5324540138244629 0.5296249985694885 0.5429880023002625 0.5638740062713623 0.5576279759407043 0.531906008720398
          0.5244899988174438 0.5371040105819702 0.5527240037918091 0.5407090187072754 0.5188800096511841 0.5381550192832947
          0.5391470193862915 0.5419120192527771 0.5569069981575012 0.5191540122032166 0.5343390107154846 0.5411030054092407
          0.5406569838523865 0.5285059809684753 0.5619649887084961 0.5156630277633667 0.5436729788780212 0.5182070136070251
          0.5296139717102051 0.5514799952507019 0.5518530011177063 0.5363730192184448 0.5539219975471497 0.5419459939002991
          0.5290759801864624 0.5233370065689087 0.5352410078048706 0.537568986415863 0.5338969826698303 0.5429289937019348
          0.5454769730567932 0.5448979735374451 0.5301129817962646 0.5610820055007935 0.5583890080451965 0.5488150119781494
          0.5351690053939819 0.5410400032997131 0.5523200035095215 0.5456600189208984 0.5526779890060425 0.5484799742698669
          0.5575399994850159 0.5431110262870789 0.5310270190238953 0.5346570014953613 0.5505759716033936 0.5401149988174438
          0.547789990901947 0.5351539850234985 0.5549070239067078 0.531466007232666 0.5440250039100647 0.5541110038757324
          0.5232719779014587 0.5412939786911011 0.547668993473053 0.5189369916915894 0.525268018245697 0.535535991191864
          0.5514280200004578 0.551065981388092 0.5604640245437622 0.5504459738731384 0.5500919818878174 0.5594409704208374
          0.5353000164031982 0.5534840226173401 0.5610679984092712 0.5427600145339966 0.544185996055603 0.5391129851341248
          0.5423359870910645 0.5162349939346313 0.5530070066452026 0.5134519934654236 0.543088972568512 0.5389320254325867
          0.5377470254898071 0.5361419916152954 0.5122290253639221 0.5431100130081177 0.5374529957771301 0.5562319755554199
          0.5193769931793213 0.5273860096931458 0.5286459922790527 0.5542179942131042 0.5321090221405029 0.5514630079269409
          0.5445110201835632 0.5526819825172424 0.5288379788398743 0.529246985912323 0.5567759871482849 0.5343689918518066
          0.5354909896850586 0.559240996837616
        </DataArray>
      </PointData>
      <CellData>
      </CellData>
      <Points>
        <DataArray type="Float32" Name="Points" NumberOfComponents="3" format="ascii" RangeMin="55.68032613614962" RangeMax="228.63535623088302">
          88.69843292236328 143.91116333007812 78.26993560791016 85.00948333740234 145.10699462890625 74.86463165283203
          94.77599334716797 142.98486328125 76.94440460205078 77.88194274902344 146.0783233642578 75.10128021240234
          79.47775268554688 143.57667541503906 96.2909927368164 74.92475128173828 143.88571166992188 91.76065063476562
          72.693603515625 145.21214294433594 77.4460220336914 86.95679473876953 145.2688446044922 67.04275512695312
          100.26730346679688 141.06875610351562 73.53925323486328 101.91934967041016 140.94683837890625 75.74256896972656
          79.84087371826172 142.5323944091797 100.3791275024414 68.31338500976562 145.21054077148438 78.89997863769531
          69.90714263916016 146.26979064941406 75.16334533691406 104.24224090576172 139.9623260498047 74.075439453125
          106.97337341308594 139.66046142578125 84.50326538085938 100.08439636230469 138.4082489013672 99.70156860351562
          100.1805191040039 138.45431518554688 99.66181945800781 86.38920593261719 140.47299194335938 105.08123779296875
          72.841796875 142.702392578125 100.54167938232422 101.39254760742188 142.251708984375 64.59176635742188
          106.41329193115234 137.48992919921875 96.50418853759766 61.074405670166016 144.08676147460938 89.02447509765625
          60.680328369140625 144.13531494140625 85.08195495605469 111.29126739501953 136.95120239257812 72.7822036743164
          94.74476623535156 137.14984130859375 110.17363739013672 56.439697265625 143.15933227539062 85.41777801513672
          76.42672729492188 143.72836303710938 54.592552185058594 81.08455657958984 138.29623413085938 114.54704284667969
          92.14086151123047 141.55104064941406 49.47761917114258 98.94269561767578 140.55955505371094 51.273502349853516
          119.44258117675781 134.40980529785156 89.7585678100586 111.4885025024414 134.19876098632812 105.0970230102539
          57.193519592285156 139.57778930664062 104.5671615600586 50.1734504699707 142.5666961669922 70.72445678710938
          115.96766662597656 136.160888671875 60.32908248901367 117.50022888183594 135.1418914794922 63.42616271972656
          122.92047882080078 133.7602081298828 77.2068099975586 118.87248992919922 133.1792755126953 101.86234283447266
          114.1735610961914 132.0376434326172 107.38276672363281 64.9390869140625 136.33140563964844 115.623291015625
          55.6622428894043 137.60008239746094 108.48326873779297 49.84385299682617 137.802734375 98.76539611816406
          59.534305572509766 140.89654541015625 51.60249710083008 83.09976196289062 131.94381713867188 123.68179321289062
          42.211585998535156 138.4939727783203 77.67201232910156 43.19010925292969 139.67022705078125 69.62930297851562
          96.90911865234375 133.66647338867188 41.811771392822266 104.76981353759766 134.72500610351562 42.72221755981445
          127.57382202148438 129.77012634277344 70.6231918334961 128.10203552246094 129.66297912597656 74.74429321289062
          121.97390747070312 129.932373046875 109.26244354248047 108.50060272216797 128.85914611816406 120.71922302246094
          50.324615478515625 133.51043701171875 111.7966537475586 46.034297943115234 134.7130126953125 105.1240234375
          58.1922721862793 135.06553649902344 45.1732292175293 117.9172592163086 127.74472045898438 117.81150817871094
          117.95130920410156 127.91246032714844 117.7246322631836 97.67627716064453 125.76508331298828 126.36971282958984
          65.56293487548828 129.05056762695312 125.5654296875 38.21666717529297 133.00564575195312 95.11006164550781
          41.775611877441406 135.8231201171875 56.41979217529297 93.2223892211914 125.86856842041016 38.19960403442383
          137.57652282714844 128.44183349609375 87.8621597290039 137.59779357910156 128.32327270507812 87.84398651123047
          129.2480926513672 125.87886810302734 108.04930114746094 83.1324691772461 123.8257827758789 130.4966583251953
          37.93702697753906 134.96536254882812 54.88141632080078 37.89122009277344 134.9716033935547 54.893436431884766
          40.42562484741211 135.12158203125 51.09687423706055 141.68455505371094 127.47077941894531 79.36113739013672
          93.84660339355469 121.6980209350586 132.78651428222656 83.73760223388672 121.76923370361328 133.64158630371094
          72.82687377929688 122.92240142822266 132.4449005126953 68.88249969482422 122.8631591796875 131.85316467285156
          48.914527893066406 125.32376098632812 121.4382095336914 29.781888961791992 129.23475646972656 87.98242950439453
          33.784793853759766 131.97120666503906 55.29381561279297 46.026939392089844 132.2992401123047 37.719696044921875
          110.78970336914062 124.76628112792969 34.142662048339844 118.61543273925781 125.75641632080078 36.2283821105957
          125.09638214111328 125.53977966308594 41.063751220703125 138.10110473632812 123.76793670654297 108.94568634033203
          73.42172241210938 119.75112915039062 135.29446411132812 55.96909713745117 121.11107635498047 129.25662231445312
          50.64455795288086 122.2508773803711 124.52967834472656 44.15007019042969 122.51785278320312 119.89456176757812
          26.547134399414062 128.84292602539062 64.42680358886719 39.84736633300781 130.3830108642578 37.951927185058594
          77.9803237915039 112.99815368652344 38.059574127197266 101.05319213867188 119.91011810302734 30.83120346069336
          131.5270233154297 122.43753051757812 45.650333404541016 147.06103515625 123.72882843017578 67.75303649902344
          149.55242919921875 124.65711975097656 72.14618682861328 138.45716857910156 120.69770050048828 113.9214096069336
          132.7351531982422 119.6646728515625 119.28092193603516 123.8797836303711 118.6816177368164 126.21862030029297
          57.746795654296875 117.93235778808594 132.34255981445312 51.14999771118164 118.07269287109375 128.57162475585938
          41.870689392089844 119.3711166381836 121.50057220458984 22.354936599731445 124.44603729248047 83.08496856689453
          45.13212203979492 128.43626403808594 28.405868530273438 70.44140625 120.39424133300781 25.268850326538086
          119.10430145263672 119.76374816894531 31.014209747314453 154.37948608398438 122.22776794433594 82.7728500366211
          121.31693267822266 114.526611328125 129.98245239257812 117.9463882446289 114.40638732910156 132.6653594970703
          93.96100616455078 113.44226837158203 139.7600555419922 91.101806640625 113.48673248291016 139.4664306640625
          55.46705627441406 115.11963653564453 133.1379852294922 48.92164611816406 116.10186767578125 129.40866088867188
          56.09466552734375 123.53617858886719 20.63882827758789 138.28627014160156 116.22447967529297 47.3270263671875
          151.36366271972656 117.82454681396484 107.38381958007812 138.37413024902344 114.54856872558594 122.88677215576172
          131.6153564453125 114.39208221435547 128.21347045898438 96.87125396728516 110.51374053955078 141.01611328125
          82.74593353271484 110.58645629882812 141.34033203125 79.76726531982422 110.68094635009766 140.9333038330078
          42.26547622680664 113.35650634765625 126.52884674072266 52.440818786621094 122.68498992919922 16.15652847290039
          104.47547149658203 111.04833221435547 26.1209716796875 137.94773864746094 113.36666870117188 42.253055572509766
          155.38473510742188 115.83660125732422 106.80473327636719 111.94792938232422 109.26656341552734 140.7039337158203
          97.5833740234375 107.35610961914062 143.03070068359375 19.480567932128906 113.14436340332031 97.52179718017578
          14.45108413696289 115.73332214355469 72.8825912475586 33.48640060424805 119.7206802368164 23.717836380004883
          68.13557434082031 115.78314208984375 11.7741060256958 105.65096282958984 107.05317687988281 25.13701057434082
          130.89352416992188 109.651123046875 33.26493835449219 15.074515342712402 114.2329330444336 50.702301025390625
          15.112937927246094 114.25115203857422 50.57696533203125 34.0235595703125 116.83473205566406 18.850006103515625
          55.2959098815918 114.87306213378906 9.142965316772461 113.48789978027344 104.032470703125 26.96990394592285
          137.45948791503906 106.50820922851562 37.00794982910156 166.9906463623047 111.43199920654297 68.96324157714844
          171.01771545410156 112.36518096923828 77.38469696044922 158.1460723876953 108.57360076904297 117.14259338378906
          123.05679321289062 103.28057861328125 139.97952270507812 77.00928497314453 101.61192321777344 146.4540252685547
          34.22794723510742 103.4078598022461 125.27488708496094 28.811368942260742 103.55740356445312 119.59046936035156
          10.011129379272461 108.4778823852539 83.2839584350586 10.267346382141113 110.11808013916016 56.975154876708984
          14.69738483428955 110.46351623535156 44.46504592895508 93.57180786132812 95.9892578125 32.576988220214844
          173.34466552734375 108.2828369140625 73.61125946044922 92.74960327148438 98.26693725585938 148.26278686523438
          88.75177764892578 98.43199157714844 148.85589599609375 70.8398666381836 98.5598373413086 146.63035583496094
          50.52140808105469 98.85968780517578 139.3077850341797 30.398632049560547 100.53652954101562 122.7705307006836
          8.921009063720703 104.54193115234375 83.97581481933594 15.193289756774902 106.569580078125 40.51166915893555
          19.15866470336914 106.68968963623047 32.86420440673828 36.86949920654297 107.97180938720703 10.84498405456543
          94.6376724243164 94.04612731933594 31.686893463134766 116.32218933105469 97.96829986572266 27.2007999420166
          153.3695831298828 99.96094512939453 54.89653396606445 171.09103393554688 103.5294189453125 109.42790985107422
          152.36932373046875 100.30912780761719 130.29124450683594 140.58033752441406 98.11141967773438 137.00894165039062
          95.68196868896484 95.29472351074219 149.65121459960938 91.55712890625 95.2333984375 150.0554962158203
          80.68702697753906 94.44676971435547 148.74606323242188 56.09008026123047 95.84188842773438 142.85252380371094
          46.579185485839844 95.96625518798828 138.68702697753906 40.03071594238281 96.11517333984375 134.85531616210938
          27.452686309814453 96.46947479248047 121.32302856445312 4.281693458557129 101.82087707519531 72.30858612060547
          8.091794967651367 103.34998321533203 49.53506088256836 21.9371395111084 103.68247985839844 26.15901756286621
          61.04249954223633 102.97081756591797 2.5822336673736572 83.36064147949219 95.3770980834961 17.065027236938477
          90.0996322631836 92.04306030273438 26.896198272705078 135.93295288085938 94.47827911376953 39.538177490234375
          175.66781616210938 100.31021881103516 70.66886901855469 158.5824737548828 97.28845977783203 127.97029113769531
          143.45225524902344 95.21957397460938 137.2021484375 124.30879974365234 93.05253601074219 145.89358520507812
          120.20906066894531 93.12130737304688 146.47723388671875 17.947317123413086 94.00646209716797 107.91551971435547
          3.185882806777954 97.75652313232422 72.9713363647461 9.980985641479492 98.52595520019531 41.6000862121582
          19.75212287902832 98.75401306152344 26.72035789489746 24.8861141204834 99.80656433105469 18.314525604248047
          53.79277801513672 98.99589538574219 2.7034101486206055 88.51416778564453 90.20408630371094 23.71231460571289
          113.57655334472656 88.87789154052734 33.76873016357422 116.26191711425781 88.81334686279297 35.162628173828125
          122.30155181884766 89.6606674194336 35.826141357421875 174.45172119140625 94.49092102050781 113.6318130493164
          137.68739318847656 90.02601623535156 142.5253448486328 126.19107818603516 90.05642700195312 146.03907775878906
          114.6989974975586 89.23833465576172 148.72178649902344 20.145999908447266 89.73579406738281 114.32514190673828
          15.943009376525879 91.0268783569336 107.70440673828125 3.230977773666382 92.63530731201172 80.05120849609375
          23.916675567626953 94.97156524658203 17.073957443237305 71.666015625 91.75028991699219 4.698279857635498
          90.46307373046875 87.12464904785156 23.802000045776367 128.78399658203125 85.31769561767578 48.50785827636719
          81.05242156982422 85.37679290771484 152.6568145751953 11.667287826538086 87.05177307128906 101.12084197998047
          7.512709617614746 87.3966064453125 93.42243194580078 6.081766128540039 88.43939971923828 89.32810974121094
          3.0937142372131348 88.69499969482422 80.85092163085938 0.9386328458786011 90.2100830078125 57.51790237426758
          69.84327697753906 88.86721801757812 2.336261510848999 108.77935028076172 81.78775787353516 38.98591995239258
          116.25736236572266 81.47164154052734 43.91752243041992 165.6011962890625 85.18012237548828 128.56922912597656
          141.55906677246094 82.97554016113281 143.75250244140625 99.11640167236328 81.1888198852539 152.7392578125
          94.93495178222656 81.14466094970703 153.34915161132812 72.85191345214844 81.38980865478516 152.61549377441406
          62.32809829711914 81.5277328491211 149.3590087890625 52.622684478759766 81.66584014892578 145.18075561523438
          35.15666580200195 82.23188018798828 131.92031860351562 22.58034896850586 85.90846252441406 18.72080421447754
          117.6835708618164 78.40178680419922 48.027740478515625 136.2347869873047 79.02906036376953 146.06130981445312
          86.03670501708984 77.2706298828125 152.16424560546875 34.17453384399414 78.31431579589844 130.82235717773438
          7.818708419799805 81.53356170654297 41.11857604980469 10.24889087677002 81.66014862060547 37.3304557800293
          24.3848934173584 80.81167602539062 19.81147575378418 31.972841262817383 80.8532485961914 14.68665885925293
          39.73484420776367 80.96768951416016 9.59327220916748 165.02206420898438 77.82839965820312 56.84648513793945
          137.0330352783203 74.9296646118164 146.03103637695312 109.2936019897461 74.05274963378906 151.79200744628906
          46.04047775268555 74.9075927734375 141.1855010986328 34.09593963623047 75.2342300415039 131.62791442871094
          2.902407646179199 75.63292694091797 81.67288208007812 3.608030319213867 76.32276916503906 50.507266998291016
          20.700637817382812 76.85458374023438 24.33461570739746 24.1759090423584 76.8411865234375 21.65500831604004
          57.755653381347656 77.07904815673828 1.6729656457901 57.780120849609375 77.07018280029297 1.617761254310608
          96.344970703125 75.20030975341797 23.29802703857422 143.33688354492188 74.10301971435547 52.11948013305664
          165.25201416015625 73.92989349365234 54.6611213684082 185.11106872558594 71.8039779663086 89.36915588378906
          152.849853515625 71.07588958740234 140.7523651123047 99.9888916015625 71.2158432006836 153.58583068847656
          84.75127410888672 70.20919036865234 153.84791564941406 62.92462921142578 70.46826934814453 151.09225463867188
          2.8095853328704834 72.20413970947266 56.36494827270508 23.893348693847656 72.68444061279297 23.718782424926758
          23.893033981323242 72.7280044555664 23.707107543945312 29.66889190673828 72.86688232421875 17.27223014831543
          106.2071533203125 72.62399291992188 42.55044937133789 110.63108825683594 72.49540710449219 47.21166229248047
          113.6544189453125 72.46330261230469 47.50850296020508 168.4547882080078 66.06877136230469 127.50237274169922
          161.5217742919922 66.11178588867188 134.7295684814453 158.1167755126953 65.93836975097656 137.2489471435547
          85.78711700439453 67.3191909790039 153.8850860595703 24.874210357666016 67.50797271728516 123.40918731689453
          4.661773681640625 67.42562103271484 49.476436614990234 4.50946044921875 67.40890502929688 49.323463439941406
          12.97872257232666 68.5379867553711 38.34413528442383 108.69300079345703 70.5603256225586 45.92287063598633
          186.17742919921875 61.75169372558594 97.20198822021484 164.887451171875 62.016361236572266 130.92483520507812
          134.94642639160156 62.959659576416016 145.5399169921875 66.79493713378906 63.58283233642578 151.40805053710938
          32.00448226928711 64.23049926757812 131.1573028564453 29.403038024902344 64.31431579589844 127.8835678100586
          26.345361709594727 63.78905487060547 18.77712631225586 29.611387252807617 63.888973236083984 16.10883331298828
          74.6360092163086 63.783721923828125 2.3476550579071045 120.16297149658203 67.3958511352539 52.18541717529297
          181.70462036132812 58.319801330566406 74.43536376953125 120.35282897949219 59.03142547607422 149.74835205078125
          40.97712326049805 60.021366119384766 139.1673583984375 6.103810787200928 59.40481185913086 86.64720153808594
          4.543967247009277 59.6697883605957 82.47494506835938 3.6098945140838623 59.12575149536133 56.10836410522461
          9.150739669799805 59.39665603637695 43.714908599853516 23.08073616027832 58.7782096862793 21.111032485961914
          34.95749282836914 59.99787139892578 13.645440101623535 91.36943817138672 63.146610260009766 22.458467483520508
          96.78829956054688 64.0356674194336 27.158767700195312 149.9858856201172 60.06920623779297 54.60774612426758
          32.98923873901367 56.27411651611328 131.1467742919922 6.988308906555176 55.55243682861328 86.77826690673828
          4.012355804443359 55.699432373046875 78.29129791259766 3.6214261054992676 55.078433990478516 64.1132583618164
          10.1181058883667 55.498504638671875 43.84027862548828 31.940359115600586 54.90778350830078 14.08641529083252
          39.2464714050293 55.01393127441406 10.914729118347168 113.92626953125 62.53120040893555 44.3023567199707
          178.0024871826172 49.29935836791992 71.90808868408203 175.32615661621094 47.47126770019531 109.84488677978516
          155.75555419921875 49.148162841796875 131.62745666503906 136.27000427246094 51.09504318237305 142.44496154785156
          94.09600067138672 53.30226516723633 150.4645538330078 89.95828247070312 53.31861877441406 151.04501342773438
          54.458126068115234 52.70954513549805 144.676513671875 47.83427429199219 52.86725997924805 140.87020874023438
          8.810047149658203 52.44693374633789 88.95367431640625 18.246231079101562 51.643341064453125 34.636810302734375
          42.6231803894043 50.96024703979492 8.207566261291504 77.59608459472656 54.612152099609375 10.547295570373535
          81.8284912109375 56.42827224731445 17.046268463134766 91.69151306152344 58.12179946899414 27.370616912841797
          94.4743881225586 59.0286979675293 29.798704147338867 99.08914947509766 59.907142639160156 33.39484405517578
          108.13954162597656 58.787166595458984 33.45594787597656 176.8588409423828 45.31385040283203 72.7420654296875
          174.76812744140625 43.54934310913086 106.58255767822266 174.69381713867188 43.48591232299805 106.6463394165039
          156.94180297851562 45.290130615234375 128.78196716308594 113.3642807006836 49.118751525878906 147.693603515625