<?xml version="1.0"?>
<VTKFile type="PolyData" version="0.1" byte_order="LittleEndian" header_type="UInt32" compressor="vtkZLibDataCompressor">
  <PolyData>
    <Piece NumberOfPoints="8160" NumberOfVerts="0" NumberOfLines="0" NumberOfStrips="0" NumberOfPolys="0">
      <PointData Scalars="Calcium Concentration">
        <DataArray type="Float32" Name="Calcium Concentration" format="ascii" RangeMin="0.25174400210380554" RangeMax="0.7365580201148987">
          0.268045 0.692719 0.695024 0.701927 0.710671 0.706002
          0.682822 0.692615 0.690309 0.702335 0.70119 0.709401
          0.689669 0.695945 0.698048 0.706214 0.694827 0.715232
          0.709085 0.687873 0.704406 0.688143 0.69758 0.677345
          0.67922 0.687937 0.68859 0.704128 0.697342 0.685229
          0.704824 0.693342 0.691784 0.695428 0.283612 0.69824
          0.705284 0.698038 0.707188 0.708605 0.692055 0.688762
          0.718195 0.700128 0.702533 0.702772 0.702309 0.698347
          0.697377 0.70039 0.696586 0.713595 0.704977 0.700689
          0.698059 0.687463 0.687721 0.677576 0.683598 0.703195
          0.688281 0.685812 0.694452 0.689869 0.709309 0.686453
          0.692812 0.687834 0.273611 0.669833 0.692639 0.681494
          0.684815 0.683565 0.689648 0.691905 0.686704 0.714426
          0.683817 0.701966 0.706504 0.693785 0.706895 0.704685
          0.709961 0.723286 0.723425 0.69678 0.707858 0.711857
          0.705997 0.720514 0.706495 0.707921 0.709288 0.715547
          0.703703 0.710469 0.70278 0.709995 0.702818 0.711668
          0.273232 0.688214 0.693557 0.697577 0.706026 0.691551
          0.710364 0.692974 0.714441 0.705781 0.694417 0.696813
          0.696715 0.704551 0.690477 0.704314 0.697903 0.699633
          0.710404 0.697835 0.70535 0.700684 0.692178 0.692728
          0.689225 0.696768 0.704052 0.69648 0.712942 0.700615
          0.690352 0.702079 0.69002 0.695095 0.267368 0.672013
          0.687022 0.682975 0.678605 0.691696 0.692382 0.679022
          0.710645 0.705614 0.706202 0.691807 0.699556 0.70633
          0.68362 0.713125 0.698781 0.702465 0.717257 0.694529
          0.701255 0.684936 0.699653 0.681053 0.68873 0.688828
          0.692497 0.690311 0.694637 0.695525 0.682548 0.69159
          0.711686 0.685085 0.282963 0.69481 0.700395 0.706777
          0.699552 0.710028 0.692051 0.705079 0.676679 0.701732
          0.698697 0.698083 0.699262 0.689571 0.702801 0.706015
          0.697189 0.695887 0.707892 0.702148 0.695976 0.711516
          0.698552 0.704452 0.708936 0.724439 0.704831 0.69196
          0.690331 0.69895 0.715244 0.706159 0.694115 0.709646
          0.26835 0.678918 0.698564 0.688955 0.678678 0.6906
          0.676473 0.688883 0.694536 0.722548 0.685201 0.702309
          0.706882 0.698394 0.697873 0.689364 0.700837 0.720893
          0.71174 0.696841 0.693396 0.706246 0.703485 0.705862
          0.708072 0.715408 0.722625 0.714665 0.720603 0.713765
          0.708075 0.718603 0.703818 0.705412 0.269091 0.685625
          0.693352 0.697075 0.689869 0.703913 0.687888 0.675414
          0.683054 0.69935 0.716983 0.709792 0.684645 0.718633
          0.69493 0.710856 0.701772 0.69326 0.709439 0.691996
          0.689748 0.698156 0.690228 0.684373 0.697214 0.689568
          0.701654 0.68985 0.690022 0.679912 0.69586 0.686318
          0.670653 0.688262 0.262565 0.67633 0.675287 0.677815
          0.673147 0.685544 0.695997 0.699785 0.691291 0.701116
          0.705473 0.698965 0.69396 0.712773 0.692329 0.714532
          0.702046 0.697449 0.707977 0.69234 0.705722 0.717901
          0.697957 0.705055 0.701649 0.722184 0.699896 0.707566
          0.708529 0.712098 0.717797 0.709756 0.709946 0.710978
          0.277724 0.686499 0.694335 0.70039 0.70195 0.711418
          0.694345 0.69546 0.71438 0.706532 0.705867 0.694476
          0.696423 0.705637 0.708058 0.697934 0.699139 0.700506
          0.72613 0.689625 0.705307 0.71252 0.69764 0.705707
          0.714845 0.705189 0.697103 0.713058 0.711554 0.698345
          0.71072 0.697397 0.707917 0.70668 0.276478 0.691636
          0.704008 0.710107 0.689646 0.715848 0.693338 0.701708
          0.705491 0.7047 0.698934 0.696757 0.696551 0.689386
          0.695661 0.705606 0.701822 0.694175 0.712936 0.710792
          0.71439 0.715004 0.705057 0.706583 0.708683 0.692868
          0.702711 0.699317 0.721087 0.706447 0.720898 0.711419
          0.707134 0.706873 0.265563 0.675374 0.686343 0.697986
          0.685546 0.692768 0.682051 0.699744 0.700149 0.70474
          0.705967 0.707042 0.697831 0.692836 0.696942 0.707667
          0.707543 0.694533 0.71961 0.692813 0.685444 0.693199
          0.705242 0.685236 0.681488 0.701977 0.689652 0.691906
          0.678938 0.68804 0.694997 0.702053 0.701904 0.69558
          0.274205 0.692656 0.70925 0.695953 0.691576 0.69472
          0.709231 0.698319 0.706667 0.704921 0.700332 0.689536
          0.705714 0.697324 0.700531 0.702209 0.701022 0.697258
          0.71518 0.700067 0.694182 0.69274 0.698965 0.688325
          0.687522 0.698633 0.692673 0.688461 0.704603 0.694467
          0.688892 0.683789 0.7035 0.695091 0.280453 0.685544
          0.685525 0.706761 0.714407 0.685158 0.699963 0.693617
          0.700849 0.713484 0.701275 0.703721 0.690365 0.708138
          0.70407 0.69828 0.699286 0.702005 0.718592 0.699736
          0.692505 0.690955 0.675886 0.682349 0.675526 0.695431
          0.688833 0.698065 0.69273 0.68601 0.699822 0.685206
          0.678087 0.693256 0.264191 0.660955 0.694116 0.702745
          0.697274 0.687462 0.687696 0.696614 0.682654 0.701306
          0.696873 0.702575 0.692574 0.703338 0.688532 0.683037
          0.703615 0.689771 0.703726 0.694525 0.70982 0.715768
          0.714752 0.709201 0.707923 0.714966 0.707374 0.701803
          0.712904 0.721079 0.70537 0.717768 0.711045 0.700591
          0.272026 0.701951 0.695262 0.692258 0.709261 0.707927
          0.685212 0.694076 0.703285 0.705163 0.697226 0.700932
          0.700834 0.703936 0.696292 0.701624 0.696325 0.696959
          0.701593 0.702815 0.68821 0.679243 0.703334 0.688044
          0.690859 0.694709 0.694739 0.687488 0.688477 0.689761
          0.690766 0.689954 0.687628 0.694004 0.260481 0.671988
          0.693264 0.686728 0.686369 0.690864 0.694036 0.689735
          0.691103 0.687963 0.704834 0.703807 0.703199 0.70478
          0.703426 0.69832 0.693903 0.711295 0.706317 0.699369
          0.700814 0.696307 0.698223 0.690479 0.692475 0.685685
          0.689451 0.708992 0.702791 0.702124 0.711073 0.704355
          0.689317 0.695837 0.261681 0.678554 0.682513 0.670792
          0.688449 0.699079 0.69086 0.70954 0.688009 0.704044
          0.697066 0.713229 0.697022 0.697516 0.705722 0.696966
          0.694829 0.704396 0.706858 0.699791 0.692687 0.704433
          0.709331 0.710585 0.706289 0.729344 0.702285 0.696951
          0.701505 0.707117 0.703782 0.699459 0.72319 0.725404
          0.263023 0.674509 0.692068 0.690469 0.694374 0.678756
          0.688433 0.693136 0.703215 0.712205 0.691893 0.688414
          0.698629 0.691836 0.698012 0.700015 0.697977 0.711827
          0.701035 0.70877 0.696583 0.69419 0.688915 0.686117
          0.688659 0.700921 0.693481 0.68267 0.686887 0.690376
          0.701178 0.680059 0.697288 0.702077 0.282019 0.683434
          0.697437 0.71091 0.693659 0.687972 0.705872 0.701421
          0.698793 0.707983 0.704706 0.701126 0.692744 0.687799
          0.699688 0.701558 0.699121 0.69763 0.718022 0.695621
          0.68874 0.698513 0.682746 0.678761 0.70019 0.692227
          0.686146 0.697755 0.699443 0.686056 0.684738 0.693954
          0.67928 0.695169 0.26243 0.696967 0.688294 0.687724
          0.693593 0.698566 0.70364 0.711482 0.692122 0.695341
          0.709268 0.689992 0.695514 0.705375 0.68272 0.695029
          0.708549 0.70194 0.717505 0.69472 0.689794 0.70055
          0.680778 0.681791 0.691503 0.695146 0.688479 0.693005
          0.703215 0.700144 0.696638 0.689659 0.698882 0.702321
          0.277288 0.677178 0.703411 0.688741 0.698104 0.7061
          0.703871 0.701335 0.691568 0.707883 0.695702 0.691725
          0.711663 0.688168 0.700194 0.687191 0.699781 0.703613
          0.700611 0.706977 0.699609 0.711429 0.71003 0.708995
          0.703261 0.71155 0.720653 0.695969 0.718444 0.707505
          0.721136 0.700841 0.704351 0.704673 0.272552 0.70736
          0.678422 0.712911 0.703364 0.702289 0.706459 0.710031
          0.68777 0.699941 0.708852 0.692423 0.701894 0.687842
          0.690648 0.699966 0.700899 0.705367 0.710858 0.70241
          0.715684 0.711818 0.702695 0.709496 0.714599 0.708661
          0.701372 0.704512 0.688191 0.703356 0.717644 0.714484
          0.718991 0.715761 0.274441 0.698397 0.701713 0.69609
          0.704359 0.700145 0.708917 0.701786 0.693202 0.697677
          0.695816 0.695251 0.696218 0.710037 0.694379 0.695531
          0.705993 0.715937 0.710282 0.68986 0.707597 0.698838
          0.709089 0.707841 0.708248 0.708475 0.712885 0.716166
          0.720445 0.699657 0.702435 0.704092 0.698397 0.721007
          0.266612 0.687358 0.695516 0.699587 0.707141 0.68716
          0.714368 0.69893 0.709902 0.70162 0.704549 0.698021
          0.690931 0.705474 0.701821 0.693391 0.708576 0.686167
          0.70968 0.695819 0.701212 0.6869 0.668364 0.698667
          0.684363 0.692948 0.696458 0.691349 0.703989 0.697163
          0.686373 0.684442 0.681429 0.693239 0.277074 0.675037
          0.703761 0.712636 0.701199 0.706539 0.700529 0.703127
          0.690691 0.703316 0.691703 0.704275 0.707976 0.704787
          0.702893 0.701632 0.696845 0.695783 0.696204 0.697078
          0.702941 0.695437 0.689236 0.685489 0.689076 0.690415
          0.703722 0.698856 0.708445 0.707306 0.687183 0.696206
          0.702138 0.68959 0.279753 0.693255 0.680922 0.702382
          0.70474 0.703053 0.705784 0.696169 0.690464 0.687145
          0.717976 0.698712 0.695729 0.704829 0.694933 0.693202
          0.706067 0.715465 0.688913 0.697449 0.700817 0.691225
          0.678011 0.699172 0.691887 0.693933 0.685759 0.694931
          0.677971 0.682636 0.691758 0.679784 0.687344 0.69245
          0.277133 0.686378 0.686375 0.693132 0.685178 0.695988
          0.689994 0.692845 0.689463 0.704925 0.696972 0.677223
          0.692538 0.680808 0.684822 0.71147 0.700291 0.68423
          0.716224 0.694787 0.697123 0.697841 0.687717 0.690453
          0.679573 0.694785 0.692956 0.686043 0.682776 0.68004
          0.705566 0.698777 0.676343 0.707383 0.264255 0.686103
          0.692912 0.700581 0.701579 0.688792 0.705224 0.707402
          0.685915 0.722026 0.687673 0.683277 0.708858 0.691647
          0.706878 0.699654 0.697728 0.699283 0.697879 0.710745
          0.697326 0.691403 0.677909 0.684612 0.689204 0.693406
          0.687894 0.690828 0.713332 0.701274 0.686322 0.708217
          0.701213 0.684967 0.270066 0.675208 0.694639 0.690926
          0.702224 0.689543 0.704059 0.690466 0.701522 0.70865
          0.702784 0.695113 0.696977 0.706798 0.689768 0.721251
          0.694271 0.687826 0.725408 0.689346 0.68954 0.69422
          0.693314 0.686702 0.690897 0.696895 0.692041 0.702413
          0.699415 0.690881 0.692934 0.677315 0.67943 0.691023
          0.275525 0.664606 0.694077 0.693572 0.675967 0.69118
          0.687124 0.701359 0.686959 0.692031 0.697046 0.699719
          0.70257 0.707072 0.701894 0.693853 0.69664 0.692405
          0.691394 0.698608 0.690225 0.714488 0.708934 0.71975
          0.714226 0.716342 0.71823 0.698751 0.70953 0.709872
          0.696193 0.701221 0.701539 0.711226 0.270822 0.680096
          0.701961 0.694812 0.694236 0.693921 0.6943 0.694224
          0.682715 0.678948 0.697741 0.695418 0.685342 0.708188
          0.698508 0.709475 0.699628 0.707758 0.70572 0.698946
          0.699743 0.711534 0.721633 0.70482 0.700187 0.719217
          0.701978 0.710289 0.713614 0.70743 0.707148 0.708096
          0.708387 0.710227 0.272399 0.677902 0.685266 0.687882
          0.711398 0.703904 0.710999 0.687376 0.69968 0.711265
          0.693428 0.685807 0.715817 0.701275 0.689089 0.694247
          0.688399 0.697206 0.724849 0.689838 0.705451 0.702987
          0.706091 0.709826 0.70309 0.708101 0.712401 0.705763
          0.701217 0.715518 0.720561 0.710217 0.709864 0.711005
          0.270701 0.664969 0.692846 0.699623 0.682646 0.684642
          0.68872 0.68558 0.683437 0.69056 0.709632 0.707353
          0.690765 0.703866 0.699239 0.71405 0.709936 0.7006
          0.711288 0.691319 0.702145 0.692616 0.6873 0.71323
          0.707435 0.680748 0.696946 0.696813 0.690009 0.68961
          0.695029 0.692232 0.69606 0.699032 0.28465 0.680768
          0.691823 0.683796 0.675761 0.696546 0.681233 0.6848
          0.699343 0.698549 0.701179 0.702767 0.700361 0.702629
          0.701295 0.70509 0.707942 0.698048 0.696934 0.715245
          0.696668 0.706115 0.690598 0.685609 0.680721 0.688082
          0.707508 0.699529 0.692175 0.701648 0.692991 0.692047
          0.690138 0.694537 0.268925 0.659915 0.686996 0.701349
          0.689054 0.694787 0.687224 0.694036 0.69804 0.692992
          0.690133 0.685675 0.70229 0.696718 0.70949 0.706375
          0.701069 0.703698 0.709306 0.708153 0.692219 0.700083
          0.694913 0.697855 0.712856 0.700002 0.701554 0.700991
          0.70137 0.69697 0.69578 0.693915 0.686841 0.686979
          0.263082 0.682064 0.693834 0.703888 0.688482 0.709001
          0.702146 0.698875 0.698579 0.698757 0.69364 0.703801
          0.6974 0.691494 0.683271 0.707213 0.698444 0.709294
          0.699624 0.700571 0.696608 0.695011 0.701126 0.686782
          0.689965 0.690778 0.685278 0.691553 0.713287 0.696871
          0.689999 0.68002 0.689922 0.682436 0.273071 0.660882
          0.686393 0.690046 0.689944 0.691286 0.684872 0.69091
          0.701157 0.697633 0.690756 0.694706 0.697198 0.692444
          0.686952 0.70004 0.688974 0.699892 0.701088 0.697959
          0.699324 0.693897 0.712507 0.706144 0.707065 0.71452
          0.713586 0.713553 0.717536 0.714518 0.693926 0.716686
          0.713776 0.706869 0.272503 0.690585 0.688872 0.694219
          0.697969 0.69829 0.690569 0.690377 0.697569 0.705878
          0.685901 0.699108 0.702045 0.695945 0.699789 0.707136
          0.698851 0.704605 0.715775 0.698062 0.707829 0.694191
          0.68685 0.705604 0.705503 0.695711 0.712079 0.700301
          0.682258 0.701719 0.688964 0.687892 0.687942 0.688113
          0.265059 0.696943 0.695763 0.696072 0.696744 0.699948
          0.703445 0.695135 0.70474 0.7095 0.699327 0.69033
          0.709099 0.69926 0.705529 0.692893 0.694218 0.698512
          0.706062 0.691916 0.702585 0.702735 0.69723 0.685922
          0.702273 0.687156 0.684824 0.683022 0.698422 0.696892
          0.712723 0.699534 0.682121 0.695298 0.267908 0.678626
          0.697543 0.70325 0.701677 0.697462 0.703692 0.697375
          0.712786 0.69567 0.691117 0.712265 0.696429 0.68956
          0.696393 0.693353 0.701539 0.700415 0.686721 0.713771
          0.696193 0.702052 0.697747 0.704406 0.69238 0.694694
          0.699073 0.702348 0.701364 0.695218 0.678717 0.694559
          0.686333 0.697107 0.275206 0.694993 0.712067 0.690144
          0.682836 0.707293 0.698862 0.716886 0.688509 0.696595
          0.702909 0.691524 0.705863 0.689717 0.689186 0.712047
          0.698771 0.695664 0.717659 0.705683 0.701995 0.704891
          0.703767 0.69978 0.706357 0.714738 0.709916 0.710636
          0.712946 0.70703 0.712781 0.702936 0.706979 0.70603
          0.261979 0.682322 0.699798 0.697369 0.695214 0.698467
          0.711754 0.68761 0.697919 0.697283 0.711892 0.697307
          0.691196 0.702457 0.704075 0.688316 0.701211 0.699551
          0.723231 0.696312 0.683653 0.688445 0.696257 0.693766
          0.685712 0.694485 0.685735 0.687851 0.688617 0.695854
          0.694408 0.699452 0.68426 0.689095 0.26504 0.691875
          0.705365 0.690979 0.697528 0.702835 0.699677 0.699694
          0.696198 0.701201 0.703424 0.690055 0.706655 0.691082
          0.690989 0.702496 0.703824 0.699084 0.717577 0.696577
          0.70518 0.708528 0.697809 0.702866 0.71033 0.712922
          0.709414 0.697256 0.708392 0.713512 0.695909 0.704874
          0.714854 0.705117 0.268318 0.656251 0.68929 0.697318
          0.69616 0.687756 0.690688 0.701411 0.702809 0.697993
          0.685335 0.69991 0.678101 0.702097 0.69312 0.697909
          0.697774 0.710685 0.704273 0.700006 0.709876 0.704619
          0.71445 0.708912 0.716162 0.711101 0.715873 0.724106
          0.720625 0.709978 0.703137 0.726472 0.708808 0.70566
          0.263849 0.660846 0.683929 0.677086 0.685047 0.694491
          0.706777 0.689581 0.683102 0.700014 0.717444 0.696371
          0.702471 0.690543 0.693386 0.702168 0.699753 0.711286
          0.698809 0.695888 0.705233 0.70085 0.716336 0.702306
          0.716781 0.7124 0.702919 0.705645 0.704517 0.722203
          0.703899 0.709803 0.714135 0.709502 0.264228 0.672115
          0.687278 0.688221 0.694193 0.680615 0.690558 0.678112
          0.696371 0.712425 0.701528 0.69464 0.699267 0.706664
          0.696175 0.705047 0.705489 0.711587 0.713861 0.692764
          0.71321 0.710597 0.722897 0.705033 0.694714 0.705711
          0.694636 0.703006 0.707612 0.718818 0.691294 0.71409
          0.707689 0.709458 0.278626 0.700106 0.703199 0.698488
          0.695527 0.709533 0.694298 0.697661 0.701883 0.692853
          0.704166 0.676599 0.691402 0.719703 0.686257 0.707216
          0.701613 0.704213 0.712615 0.706591 0.702389 0.703929
          0.707493 0.705881 0.694128 0.701443 0.708161 0.713392
          0.714045 0.703797 0.715849 0.70575 0.702749 0.721192
          0.251744 0.670637 0.688666 0.698817 0.686804 0.686987
          0.697923 0.689137 0.687651 0.684157 0.703362 0.701284
          0.708735 0.697976 0.700605 0.704542 0.686983 0.693141
          0.708395 0.70647 0.689413 0.689003 0.682937 0.694221
          0.706602 0.693019 0.694346 0.691069 0.685683 0.701708
          0.687196 0.69564 0.694777 0.689893 0.284625 0.671657
          0.70121 0.696573 0.689079 0.693945 0.697711 0.696475
          0.689806 0.715629 0.697064 0.700467 0.715362 0.676254
          0.71351 0.701165 0.692697 0.706767 0.690898 0.717151
          0.693513 0.698309 0.701384 0.69844 0.693182 0.700184
          0.703062 0.70766 0.700006 0.680207 0.694127 0.701573
          0.683492 0.689429 0.278922 0.671225 0.692478 0.687451
          0.666657 0.688306 0.686695 0.707452 0.71243 0.692968
          0.688391 0.692059 0.687937 0.699783 0.71458 0.708563
          0.685819 0.70259 0.697237 0.712084 0.697524 0.690671
          0.697297 0.688843 0.696214 0.689813 0.690347 0.691636
          0.70081 0.710298 0.67773 0.69652 0.698187 0.704721
          0.269152 0.656533 0.687333 0.694523 0.695027 0.681577
          0.695511 0.700703 0.690458 0.686161 0.692322 0.701146
          0.702716 0.696176 0.698271 0.710582 0.680883 0.686434
          0.704932 0.701465 0.700765 0.722149 0.715638 0.71979
          0.719353 0.724093 0.71048 0.702622 0.717924 0.701039
          0.701044 0.708034 0.718946 0.686874 0.276121 0.664771
          0.687129 0.702008 0.690941 0.680059 0.676832 0.690131
          0.705097 0.693577 0.701479 0.709472 0.697734 0.705522
          0.702677 0.702198 0.692489 0.689213 0.697443 0.702849
          0.701134 0.707332 0.699083 0.696773 0.698688 0.686387
          0.693963 0.698283 0.694472 0.689563 0.686405 0.695995
          0.69404 0.691377 0.272492 0.684902 0.696577 0.678014
          0.688904 0.689053 0.69994 0.68925 0.677981 0.704596
          0.715038 0.682454 0.702072 0.699931 0.685616 0.700266
          0.696592 0.703855 0.714618 0.714978 0.707711 0.690406
          0.694959 0.706807 0.679625 0.694571 0.701537 0.692
          0.681568 0.692961 0.684713 0.682036 0.696155 0.696935
          0.271314 0.711783 0.704376 0.723459 0.691802 0.688628
          0.690307 0.704181 0.696932 0.710612 0.69201 0.701207
          0.699222 0.70299 0.681649 0.69137 0.690554 0.708304
          0.724499 0.691387 0.705799 0.705447 0.702837 0.708187
          0.716218 0.718681 0.719253 0.707284 0.700798 0.708107
          0.719958 0.709996 0.710301 0.71648 0.271093 0.696926
          0.694092 0.702727 0.698878 0.69862 0.694092 0.693327
          0.69917 0.697673 0.698766 0.688081 0.706018 0.702846
          0.686158 0.695537 0.70622 0.700844 0.719643 0.703891
          0.692669 0.702448 0.703925 0.706963 0.715834 0.690018
          0.700432 0.697769 0.706283 0.696275 0.726102 0.715907
          0.712173 0.703111 0.265691 0.657126 0.697931 0.691555
          0.685933 0.682279 0.688214 0.694988 0.70332 0.705943
          0.690938 0.691285 0.709733 0.696254 0.699411 0.69935
          0.690061 0.705422 0.701738 0.698334 0.701481 0.702127
          0.68889 0.702727 0.694722 0.700888 0.698338 0.709094
          0.691157 0.713328 0.685668 0.715987 0.701697 0.691084
          0.281494 0.695033 0.706044 0.696268 0.705543 0.707409
          0.697859 0.702302 0.699509 0.674775 0.692897 0.707643
          0.710987 0.705306 0.703265 0.699543 0.701267 0.703348
          0.704944 0.71364 0.704459 0.712529 0.705349 0.705994
          0.706554 0.707912 0.693491 0.701029 0.702075 0.71506
          0.706889 0.700678 0.713681 0.709536 0.271694 0.666701
          0.683625 0.687065 0.678821 0.679555 0.689762 0.70478
          0.704319 0.712021 0.705997 0.690762 0.708108 0.706499
          0.71295 0.68584 0.702819 0.706336 0.711545 0.707187
          0.701409 0.697238 0.681286 0.684009 0.696598 0.682878
          0.686014 0.690301 0.684985 0.689457 0.68981 0.681962
          0.685839 0.699638 0.263435 0.677008 0.705012 0.698991
          0.701171 0.699136 0.70096 0.6888 0.684524 0.696186
          0.71837 0.692817 0.692288 0.698033 0.706781 0.704574
          0.712763 0.697048 0.698077 0.706942 0.691369 0.697151
          0.692657 0.692822 0.698089 0.704315 0.696031 0.68971
          0.687916 0.697104 0.682843 0.688031 0.697945 0.672394
          0.277339 0.692966 0.700979 0.694759 0.700749 0.69591
          0.69868 0.702582 0.708792 0.70622 0.697534 0.709657
          0.692372 0.697876 0.703947 0.693104 0.691885 0.695153
          0.710707 0.705446 0.696359 0.688328 0.680444 0.700704
          0.689137 0.693472 0.694507 0.700509 0.679386 0.68927
          0.679187 0.690737 0.687195 0.699336 0.284348 0.703733
          0.700948 0.688451 0.700754 0.710948 0.694739 0.708837
          0.701231 0.690305 0.717235 0.692576 0.700153 0.705509
          0.692192 0.712116 0.706209 0.704635 0.702817 0.701554
          0.691416 0.683272 0.677261 0.684993 0.681122 0.701958
          0.677146 0.696527 0.69397 0.686824 0.699619 0.676767
          0.695617 0.709071 0.262208 0.668022 0.693999 0.701556
          0.682243 0.681157 0.681884 0.709032 0.69745 0.684859
          0.695666 0.712689 0.708859 0.691684 0.710953 0.707577
          0.690842 0.691114 0.699743 0.703021 0.698458 0.707916
          0.72552 0.707839 0.713518 0.711955 0.714394 0.706889
          0.704599 0.70269 0.70346 0.731195 0.710334 0.698009
          0.275011 0.670708 0.688036 0.68752 0.681435 0.68274
          0.681606 0.710662 0.697732 0.704411 0.687682 0.715056
          0.694012 0.709481 0.708228 0.701631 0.692018 0.69749
          0.699444 0.705302 0.695444 0.699037 0.694953 0.684839
          0.692514 0.692112 0.701097 0.694311 0.695198 0.689859
          0.694959 0.687173 0.692057 0.697111 0.259989 0.673169
          0.686374 0.693162 0.697457 0.688277 0.691719 0.697533
          0.683735 0.688215 0.697852 0.699797 0.699215 0.691302
          0.70359 0.697466 0.697197 0.702784 0.727719 0.690032
          0.70756 0.7075 0.710013 0.70963 0.721197 0.707558
          0.709592 0.69139 0.71295 0.709464 0.726451 0.72222
          0.701117 0.722839 0.27396 0.665473 0.694459 0.694519
          0.703221 0.704092 0.692668 0.71299 0.70817 0.69957
          0.700556 0.7118 0.693529 0.706211 0.708791 0.683305
          0.689673 0.702591 0.696703 0.694128 0.697315 0.691284
          0.700674 0.716114 0.706093 0.688926 0.692849 0.704625
          0.690702 0.697096 0.681103 0.691089 0.689356 0.68714
          0.288423 0.679582 0.701552 0.69344 0.690258 0.701701
          0.703954 0.698194 0.701999 0.702524 0.69042 0.700031
          0.710335 0.699967 0.697351 0.712365 0.694458 0.704486
          0.698695 0.69464 0.703728 0.695394 0.705606 0.701864
          0.704107 0.68301 0.700122 0.688546 0.682274 0.699227
          0.707885 0.687792 0.703384 0.686284 0.286552 0.672725
          0.697191 0.709432 0.694093 0.694337 0.693029 0.710278
          0.697493 0.713963 0.688529 0.711833 0.697752 0.695191
          0.706171 0.692002 0.708275 0.710321 0.700142 0.711621
          0.70494 0.690756 0.691086 0.697465 0.698139 0.690873
          0.709677 0.698023 0.696323 0.708048 0.676075 0.695885
          0.694838 0.684634 0.282705 0.684011 0.704239 0.708948
          0.686586 0.695114 0.691581 0.689788 0.684169 0.690939
          0.690294 0.676751 0.706939 0.702269 0.690568 0.691053
          0.702214 0.710334 0.707965 0.690865 0.703237 0.702042
          0.698583 0.710343 0.70167 0.700883 0.706806 0.703696
          0.715485 0.708395 0.705987 0.681078 0.726309 0.719619
          0.273162 0.680247 0.681113 0.676118 0.684348 0.692256
          0.686508 0.693838 0.706785 0.695706 0.711578 0.703282
          0.699177 0.714628 0.694484 0.714309 0.695293 0.70249
          0.706746 0.696081 0.696354 0.688509 0.689241 0.685774
          0.683357 0.686766 0.687263 0.684113 0.692195 0.694749
          0.677937 0.689303 0.695806 0.687511 0.283529 0.70686
          0.691922 0.701299 0.698249 0.686917 0.709662 0.698734
          0.708331 0.689603 0.705206 0.67959 0.720076 0.707769
          0.692581 0.692613 0.700573 0.715959 0.704891 0.695086
          0.689675 0.685483 0.681077 0.700864 0.696289 0.683889
          0.67717 0.68896 0.684058 0.685374 0.695655 0.68781
          0.702491 0.696549 0.282863 0.665911 0.69852 0.694502
          0.69057 0.690501 0.685508 0.70664 0.699206 0.687269
          0.70168 0.69928 0.709367 0.707137 0.697724 0.723049
          0.687236 0.686476 0.698088 0.702439 0.695531 0.701302
          0.715889 0.690862 0.709892 0.686886 0.699187 0.70307
          0.697323 0.706668 0.691731 0.702013 0.700173 0.689528
          0.275965 0.694295 0.701477 0.702575 0.692401 0.702755
          0.702541 0.707371 0.706554 0.701392 0.691912 0.71138
          0.693652 0.703722 0.712284 0.698013 0.698439 0.703513
          0.704926 0.690617 0.705896 0.716304 0.707379 0.716147
          0.708642 0.705853 0.701883 0.695929 0.712885 0.708678
          0.69335 0.71991 0.719741 0.713209 0.257062 0.65609
          0.684159 0.699549 0.689799 0.691144 0.681309 0.688232
          0.697463 0.705623 0.705184 0.704989 0.700378 0.702867
          0.705623 0.70279 0.712163 0.695412 0.695401 0.693977
          0.710997 0.706432 0.704868 0.710319 0.712146 0.706755
          0.704027 0.705014 0.689861 0.706392 0.707666 0.711443
          0.710027 0.70283 0.27287 0.664314 0.697623 0.694882
          0.691299 0.703807 0.700765 0.699192 0.685966 0.692245
          0.696227 0.696502 0.702368 0.709879 0.699103 0.701819
          0.699787 0.700471 0.705769 0.693616 0.708082 0.713313
          0.716194 0.715186 0.713428 0.713824 0.714044 0.705742
          0.703213 0.71788 0.706539 0.70215 0.711026 0.704251
          0.261945 0.694673 0.692097 0.695969 0.711135 0.697339
          0.701328 0.695056 0.694461 0.702749 0.696402 0.700326
          0.693962 0.693459 0.696172 0.693298 0.694401 0.702735
          0.695216 0.689248 0.710113 0.712173 0.693646 0.698371
          0.703909 0.714115 0.710445 0.733814 0.700911 0.705907
          0.702248 0.710653 0.712233 0.707477 0.279179 0.677983
          0.689486 0.70871 0.705152 0.69047 0.700838 0.700591
          0.703988 0.702001 0.696252 0.705597 0.702382 0.703159
          0.702737 0.68972 0.688456 0.699861 0.706414 0.701467
          0.71291 0.70711 0.69619 0.70439 0.707185 0.716088
          0.706372 0.709985 0.708877 0.708828 0.698069 0.694161
          0.703126 0.709561 0.284613 0.67196 0.688587 0.684467
          0.685849 0.69088 0.689919 0.690741 0.694315 0.701328
          0.7049 0.691554 0.701523 0.706196 0.683818 0.705306
          0.689769 0.693919 0.707949 0.704228 0.710475 0.705613
          0.713922 0.708805 0.702337 0.701995 0.698311 0.705471
          0.706786 0.687 0.716817 0.705346 0.702544 0.709722
          0.276391 0.688706 0.700336 0.700935 0.694681 0.705762
          0.691307 0.718228 0.699657 0.686361 0.700648 0.715158
          0.690281 0.728196 0.698731 0.696458 0.689837 0.708523
          0.704141 0.69337 0.716785 0.707481 0.709969 0.694868
          0.716704 0.701599 0.722836 0.721236 0.698429 0.704484
          0.692027 0.712111 0.705755 0.697372 0.275429 0.66686
          0.676018 0.691627 0.687731 0.705343 0.690733 0.685123
          0.693504 0.69014 0.700328 0.697698 0.695363 0.709088
          0.692776 0.693696 0.707678 0.68404 0.707636 0.703611
          0.707747 0.708526 0.726324 0.699312 0.699052 0.707346
          0.721934 0.705075 0.725206 0.703406 0.703557 0.700288
          0.700056 0.703689 0.280773 0.693959 0.696882 0.70492
          0.686193 0.712562 0.702104 0.703352 0.680324 0.707117
          0.698752 0.715503 0.69615 0.696574 0.689477 0.702692
          0.697296 0.699308 0.712563 0.694806 0.691863 0.706769
          0.72141 0.697073 0.705447 0.712732 0.695289 0.704379
          0.705426 0.70261 0.718272 0.709137 0.715663 0.720373
          0.268777 0.668249 0.703024 0.691816 0.693379 0.689149
          0.690985 0.705453 0.717538 0.695428 0.69809 0.692968
          0.694212 0.692499 0.69192 0.704922 0.692647 0.690528
          0.687967 0.713084 0.687343 0.701903 0.70096 0.707788
          0.700892 0.696757 0.701234 0.699928 0.69935 0.713837
          0.672398 0.708738 0.703304 0.690726 0.280641 0.669822
          0.710279 0.701996 0.69645 0.720291 0.687636 0.703774