<?xml version="1.0"?>
<VTKFile type="PolyData" version="0.1" byte_order="LittleEndian" header_type="UInt32" compressor="vtkZLibDataCompressor">
  <PolyData>
    <Piece NumberOfPoints="8160" NumberOfVerts="0" NumberOfLines="0" NumberOfStrips="0" NumberOfPolys="0">
      <PointData Scalars="Calcium Concentration">
        <DataArray type="Float32" Name="Calcium Concentration" format="ascii" RangeMin="0.3932969868183136" RangeMax="0.7368159890174866">
          0.418265 0.704859 0.704584 0.69456 0.704737 0.701684
          0.691729 0.697454 0.694351 0.701902 0.692833 0.710865
          0.702312 0.70449 0.682218 0.698057 0.69366 0.714647
          0.717089 0.691689 0.700633 0.676177 0.690408 0.692093
          0.686529 0.688614 0.692843 0.70311 0.692606 0.679701
          0.705849 0.694256 0.691332 0.697528 0.424872 0.699043
          0.698339 0.688358 0.703052 0.705563 0.695572 0.693862
          0.726708 0.702162 0.703561 0.708294 0.696529 0.690177
          0.697039 0.702319 0.701903 0.705908 0.701769 0.702604
          0.695784 0.690047 0.686803 0.682098 0.677784 0.703515
          0.696839 0.685828 0.687129 0.700997 0.705297 0.689502
          0.691859 0.690528 0.413174 0.679458 0.685535 0.680936
          0.680708 0.67906 0.697522 0.695502 0.689659 0.711304
          0.68531 0.710808 0.719064 0.700338 0.71365 0.703131
          0.713902 0.719389 0.725165 0.696153 0.70984 0.712639
          0.714707 0.712799 0.709339 0.705945 0.711556 0.712229
          0.705788 0.711541 0.700542 0.704842 0.709258 0.704459
          0.414023 0.69145 0.706092 0.6861 0.703283 0.697845
          0.707146 0.687136 0.720187 0.706242 0.694834 0.689645
          0.692683 0.701773 0.695252 0.69668 0.692771 0.6985
          0.709645 0.696985 0.710052 0.695334 0.693978 0.700101
          0.696404 0.697462 0.70275 0.697857 0.702264 0.703548
          0.69844 0.691503 0.693714 0.69767 0.407456 0.673414
          0.69006 0.692954 0.679057 0.692213 0.692421 0.68583
          0.704272 0.694943 0.699268 0.682949 0.697292 0.704049
          0.688005 0.70818 0.70678 0.704348 0.710747 0.690515
          0.691714 0.687219 0.697755 0.678669 0.690226 0.685112
          0.690961 0.686747 0.69158 0.695999 0.682343 0.694349
          0.701651 0.688904 0.428365 0.706018 0.696423 0.698169
          0.688455 0.712121 0.705396 0.707617 0.691169 0.693454
          0.690636 0.700226 0.702 0.697342 0.699363 0.6983
          0.697392 0.693947 0.71613 0.698765 0.701816 0.709623
          0.704054 0.694115 0.712111 0.724318 0.711599 0.701828
          0.697688 0.707754 0.705661 0.708807 0.701773 0.702781
          0.414785 0.681067 0.702958 0.692774 0.67063 0.700227
          0.680659 0.688222 0.70411 0.711628 0.685756 0.701972
          0.695585 0.702304 0.697478 0.702469 0.705524 0.71192
          0.711156 0.699866 0.709963 0.704525 0.701165 0.69303
          0.702933 0.719632 0.717706 0.712204 0.717725 0.704851
          0.717098 0.71074 0.708792 0.703559 0.408851 0.683156
          0.684571 0.69562 0.683702 0.696059 0.689872 0.672105
          0.687685 0.702423 0.721919 0.707848 0.696465 0.708599
          0.685098 0.700751 0.700263 0.704615 0.713326 0.691466
          0.691495 0.690678 0.692744 0.681486 0.693449 0.691644
          0.703343 0.686123 0.691525 0.682292 0.70214 0.678262
          0.678706 0.691748 0.400508 0.684885 0.677192 0.686577
          0.674426 0.69046 0.685483 0.703606 0.702255 0.690513
          0.703527 0.697932 0.701066 0.712297 0.69022 0.705879
          0.708579 0.695069 0.712204 0.685407 0.703641 0.709372
          0.702058 0.70779 0.705513 0.719016 0.701106 0.711914
          0.705024 0.71062 0.710623 0.708693 0.708421 0.707392
          0.412796 0.697633 0.694948 0.692565 0.691447 0.706163
          0.707093 0.701036 0.710502 0.704142 0.710491 0.68944
          0.690516 0.707215 0.706932 0.686503 0.697287 0.710794
          0.720121 0.698864 0.7074 0.693616 0.692113 0.701532
          0.72074 0.711514 0.70252 0.705564 0.70707 0.697488
          0.705692 0.695662 0.706667 0.719985 0.426348 0.696072
          0.706983 0.705216 0.681019 0.707501 0.687288 0.697285
          0.708487 0.705437 0.703059 0.700536 0.705301 0.701309
          0.690232 0.69544 0.698278 0.695925 0.704682 0.705089
          0.699454 0.716218 0.703555 0.70576 0.701072 0.711871
          0.712405 0.697159 0.715911 0.701568 0.722862 0.707332
          0.711349 0.714033 0.409994 0.681087 0.693873 0.692163
          0.679099 0.693439 0.688875 0.700161 0.700118 0.702544
          0.699967 0.704783 0.70602 0.692071 0.691617 0.693158
          0.701088 0.700146 0.697077 0.703643 0.681523 0.699238
          0.702148 0.679961 0.684619 0.704521 0.688739 0.693893
          0.675682 0.690498 0.690642 0.693102 0.69341 0.69767
          0.419408 0.697754 0.698693 0.703407 0.692529 0.703267
          0.709132 0.689829 0.706896 0.699577 0.702172 0.703558
          0.708897 0.698626 0.715183 0.69958 0.695463 0.704104
          0.698284 0.701542 0.689704 0.686415 0.699743 0.687667
          0.694688 0.699285 0.68831 0.689839 0.709556 0.693015
          0.689191 0.689343 0.695089 0.692993 0.427281 0.689163
          0.68683 0.698741 0.709843 0.688442 0.704708 0.689274
          0.689048 0.699825 0.702033 0.703579 0.694383 0.700189
          0.70643 0.701061 0.69298 0.710208 0.725469 0.69973
          0.700813 0.69089 0.682808 0.690454 0.68484 0.695839
          0.683383 0.692314 0.701087 0.688977 0.689791 0.681933
          0.686417 0.688321 0.396904 0.67 0.688332 0.696584
          0.693478 0.687132 0.68203 0.690987 0.685609 0.700312
          0.695641 0.710197 0.685802 0.705163 0.700047 0.684093
          0.699982 0.698834 0.696412 0.694233 0.716952 0.711687
          0.710266 0.693953 0.707047 0.71565 0.712461 0.716042
          0.709751 0.725784 0.710684 0.723259 0.71415 0.693632
          0.405776 0.695666 0.686889 0.688303 0.702642 0.712663
          0.694632 0.691088 0.687872 0.700341 0.692768 0.694716
          0.692301 0.705619 0.693792 0.700074 0.690661 0.701095
          0.698069 0.697698 0.694571 0.683897 0.702297 0.687137
          0.699918 0.699524 0.690709 0.695417 0.687172 0.687771
          0.688684 0.691056 0.690139 0.694727 0.41104 0.678163
          0.686395 0.693499 0.692183 0.697605 0.686406 0.703047
          0.690242 0.686648 0.692487 0.707419 0.698099 0.702221
          0.716004 0.702177 0.705348 0.703986 0.707153 0.688029
          0.689137 0.695497 0.698635 0.692663 0.700245 0.686424
          0.699292 0.69378 0.695312 0.699816 0.709966 0.695897
          0.6884 0.694577 0.393297 0.684356 0.68322 0.678001
          0.681942 0.689901 0.690168 0.711296 0.698438 0.702946
          0.70776 0.710302 0.69907 0.703557 0.700611 0.709195
          0.688082 0.709534 0.702453 0.698175 0.695506 0.704958
          0.708417 0.706385 0.711216 0.726738 0.688271 0.698438
          0.699237 0.704367 0.705757 0.697645 0.710627 0.717738
          0.399076 0.6881 0.691478 0.688577 0.686906 0.678258
          0.681509 0.697091 0.689182 0.706852 0.685446 0.695936
          0.699855 0.689786 0.691065 0.697037 0.688067 0.70735
          0.703446 0.69849 0.68983 0.691999 0.686492 0.68734
          0.683562 0.702561 0.689224 0.688594 0.691124 0.696925
          0.703275 0.6883 0.696571 0.703096 0.418061 0.697717
          0.68891 0.709329 0.699968 0.693456 0.705662 0.704568
          0.701635 0.698827 0.708782 0.708955 0.697929 0.694474
          0.698905 0.697346 0.700864 0.693036 0.715483 0.696796
          0.693657 0.69238 0.683752 0.676724 0.699059 0.688839
          0.694721 0.690486 0.706491 0.685243 0.689497 0.685032
          0.680266 0.694512 0.413859 0.71427 0.692125 0.695136
          0.70196 0.6961 0.69986 0.711815 0.685316 0.698983
          0.70946 0.703194 0.706097 0.71372 0.682929 0.698996
          0.706144 0.68951 0.717763 0.690242 0.697914 0.694465
          0.677398 0.694153 0.700928 0.697283 0.687772 0.687176
          0.698889 0.698126 0.696641 0.688324 0.706464 0.707127
          0.431391 0.682591 0.697602 0.693816 0.700666 0.70738
          0.719307 0.697893 0.697609 0.708182 0.688607 0.696205
          0.703217 0.69108 0.710535 0.69179 0.698409 0.700603
          0.705479 0.698519 0.706985 0.700774 0.719193 0.707319
          0.697661 0.714607 0.709687 0.695069 0.713263 0.718162
          0.72225 0.70002 0.701073 0.693751 0.411171 0.704596
          0.686546 0.712402 0.696816 0.693473 0.710339 0.70584
          0.686712 0.699124 0.701713 0.696317 0.706924 0.69827
          0.690118 0.7028 0.692622 0.705481 0.710232 0.703538
          0.719656 0.708468 0.707918 0.719831 0.707376 0.698408
          0.700804 0.704679 0.695816 0.707816 0.714917 0.71175
          0.716219 0.723784 0.424621 0.712827 0.700854 0.697877
          0.705258 0.692915 0.702645 0.705697 0.696793 0.698482
          0.701775 0.690097 0.698562 0.701891 0.69871 0.694382
          0.699227 0.711524 0.69721 0.689251 0.703688 0.702932
          0.718105 0.711418 0.720512 0.716739 0.71392 0.716836
          0.714654 0.691624 0.714331 0.702748 0.700417 0.717417
          0.408091 0.687094 0.690613 0.707347 0.705881 0.671577
          0.7132 0.695336 0.697714 0.712511 0.70336 0.700901
          0.689489 0.696446 0.704806 0.697892 0.704468 0.694955
          0.716545 0.706478 0.695769 0.686975 0.682528 0.687723
          0.682679 0.690567 0.685712 0.693002 0.705306 0.708432
          0.692952 0.68129 0.686514 0.696171 0.419302 0.68175
          0.691436 0.69487 0.693577 0.705628 0.702093 0.703154
          0.69327 0.695656 0.693601 0.697516 0.696144 0.693044
          0.705194 0.696998 0.699289 0.693657 0.697023 0.693028
          0.699831 0.690765 0.683166 0.683323 0.683877 0.685699
          0.702107 0.696664 0.70671 0.712162 0.686755 0.697249
          0.698608 0.677068 0.419945 0.695515 0.693078 0.697473
          0.706693 0.709581 0.698808 0.698025 0.691014 0.703165
          0.700241 0.690064 0.695457 0.711974 0.687749 0.698192
          0.701194 0.702986 0.703476 0.701888 0.69421 0.687354
          0.679372 0.697848 0.702915 0.696007 0.679219 0.685333
          0.681727 0.678532 0.696919 0.679262 0.692364 0.690307
          0.40961 0.696248 0.680291 0.695493 0.692863 0.702597
          0.693204 0.697296 0.693417 0.700053 0.70588 0.678551
          0.693348 0.67201 0.69549 0.700188 0.712606 0.694426
          0.714701 0.698029 0.700886 0.69882 0.690277 0.687345
          0.695883 0.687344 0.693394 0.68412 0.68408 0.694755
          0.701383 0.704349 0.678835 0.709307 0.414446 0.700442
          0.685349 0.711234 0.694344 0.699142 0.69753 0.698601
          0.677777 0.719982 0.680087 0.68438 0.703043 0.679779
          0.715746 0.705792 0.693819 0.711176 0.709226 0.69843
          0.694195 0.690625 0.683934 0.70063 0.682543 0.690523
          0.691952 0.685803 0.709903 0.691347 0.683212 0.700915
          0.700108 0.685532 0.421096 0.689006 0.687521 0.708013
          0.700179 0.694052 0.706883 0.687416 0.707891 0.710943
          0.703017 0.689534 0.691379 0.715612 0.697709 0.707344
          0.69409 0.686141 0.709027 0.697131 0.690771 0.695862
          0.686067 0.697224 0.690562 0.700313 0.696293 0.707625
          0.704727 0.700229 0.699806 0.679105 0.678942 0.686231
          0.415851 0.67701 0.698108 0.682314 0.672804 0.684412
          0.69536 0.700652 0.677428 0.698022 0.690751 0.694412
          0.689558 0.696982 0.701073 0.691216 0.697658 0.704321
          0.692495 0.706182 0.69695 0.713864 0.712944 0.718788
          0.714801 0.711316 0.709411 0.70114 0.707483 0.700401
          0.703058 0.714777 0.69488 0.717211 0.399211 0.681675
          0.683144 0.69025 0.692605 0.698755 0.705828 0.694483
          0.68194 0.682409 0.691764 0.696808 0.700921 0.699917
          0.702679 0.705 0.699282 0.69867 0.705719 0.708182
          0.712982 0.724456 0.716323 0.702137 0.703177 0.722082
          0.708046 0.716676 0.705628 0.714742 0.710413 0.703515
          0.707664 0.706739 0.419152 0.693806 0.677902 0.691008
          0.707351 0.704588 0.720739 0.692084 0.696858 0.708936
          0.706479 0.687999 0.705954 0.705331 0.683793 0.68883
          0.692446 0.69479 0.718804 0.695111 0.698937 0.705413
          0.715893 0.712186 0.704272 0.706739 0.708228 0.717178
          0.693361 0.706743 0.723696 0.716046 0.71214 0.706883
          0.402819 0.676226 0.688766 0.695917 0.675315 0.686675
          0.688732 0.690016 0.682271 0.702273 0.703871 0.702972
          0.697011 0.703962 0.694509 0.702959 0.703832 0.700589
          0.712755 0.693511 0.698398 0.693645 0.693481 0.701241
          0.705019 0.68159 0.698625 0.700639 0.689826 0.691298
          0.693026 0.692015 0.695398 0.689781 0.423624 0.684939
          0.695699 0.682076 0.679151 0.68901 0.686529 0.682482
          0.699601 0.702874 0.700072 0.704436 0.702913 0.702645
          0.70427 0.70345 0.707727 0.702656 0.696018 0.706815
          0.697673 0.704406 0.687152 0.701446 0.687693 0.685279
          0.706494 0.698083 0.699036 0.693491 0.688545 0.694263
          0.694455 0.68832 0.405842 0.668815 0.689612 0.704026
          0.686449 0.68747 0.69391 0.69802 0.700559 0.693424
          0.679909 0.700657 0.697757 0.692747 0.700361 0.697364
          0.696276 0.702307 0.700755 0.701191 0.697109 0.705345
          0.693964 0.710938 0.704061 0.696026 0.691384 0.698542
          0.707187 0.707645 0.700459 0.684626 0.688857 0.685465
          0.403624 0.689184 0.698511 0.708778 0.691528 0.708844
          0.701274 0.702674 0.699682 0.700392 0.689231 0.705812
          0.694347 0.686425 0.694069 0.706991 0.702323 0.70315
          0.695471 0.702995 0.6958 0.693335 0.702207 0.679379
          0.694143 0.703125 0.678954 0.692451 0.703904 0.699553
          0.687115 0.678994 0.68433 0.677166 0.412697 0.670931
          0.693401 0.686968 0.693068 0.693147 0.68512 0.687999
          0.698263 0.700626 0.686234 0.705747 0.693607 0.686312
          0.693047 0.711818 0.699413 0.698053 0.706505 0.69509
          0.695798 0.693571 0.717703 0.711651 0.701321 0.707672
          0.725834 0.710274 0.723069 0.709612 0.704357 0.707363
          0.719041 0.71431 0.417853 0.703512 0.695016 0.693381
          0.69858 0.702329 0.700006 0.692853 0.699807 0.701295
          0.687611 0.702498 0.707083 0.697 0.697928 0.70193
          0.687073 0.70899 0.711294 0.696621 0.707458 0.691303
          0.690958 0.704946 0.704094 0.694987 0.707706 0.697389
          0.683462 0.707579 0.693085 0.688988 0.682704 0.686687
          0.412414 0.690769 0.687589 0.707587 0.700955 0.700169
          0.704255 0.699911 0.707543 0.704938 0.703798 0.685654
          0.704623 0.693719 0.702668 0.694586 0.691929 0.691855
          0.701301 0.689666 0.700757 0.702749 0.696635 0.686126
          0.703261 0.68841 0.678965 0.679057 0.692227 0.702385
          0.712272 0.69155 0.680613 0.698766 0.415213 0.688854
          0.691728 0.691566 0.699802 0.695569 0.695031 0.689973
          0.707703 0.703495 0.683085 0.71059 0.706044 0.69022
          0.686525 0.699654 0.700126 0.700694 0.684558 0.712154
          0.694192 0.690697 0.692992 0.700537 0.688975 0.685149
          0.709539 0.701238 0.702101 0.696549 0.688084 0.687212
          0.691274 0.695402 0.428019 0.712984 0.710035 0.69389
          0.686019 0.702824 0.700414 0.70341 0.682135 0.695694
          0.699597 0.685084 0.712618 0.698518 0.682721 0.699389
          0.695321 0.684866 0.701407 0.704931 0.706167 0.706421
          0.703349 0.704492 0.694623 0.724727 0.709916 0.704278
          0.713908 0.706176 0.700931 0.694761 0.702844 0.711793
          0.403128 0.699168 0.703156 0.704061 0.704045 0.688244
          0.715251 0.698286 0.696516 0.686939 0.698389 0.697464
          0.689886 0.713393 0.70105 0.687383 0.699575 0.700564
          0.720759 0.699418 0.678357 0.700813 0.695592 0.691415
          0.681025 0.703055 0.688366 0.688364 0.675123 0.706431
          0.701147 0.698847 0.687662 0.687729 0.414206 0.693135
          0.71838 0.709421 0.691288 0.694312 0.694783 0.709244
          0.699658 0.690865 0.705568 0.692637 0.714037 0.693646
          0.696841 0.708972 0.709188 0.700567 0.711414 0.699289
          0.707497 0.713875 0.707189 0.705982 0.709586 0.719404
          0.720699 0.709137 0.711451 0.717201 0.703852 0.704679
          0.719394 0.705642 0.409605 0.66879 0.6922 0.699583
          0.701677 0.696545 0.688299 0.700224 0.696934 0.698477
          0.681554 0.690948 0.673724 0.697976 0.705173 0.69747
          0.695185 0.713472 0.69757 0.694669 0.721799 0.700834
          0.712868 0.717294 0.711006 0.710752 0.709362 0.716542
          0.718467 0.718409 0.710641 0.718762 0.717683 0.692989
          0.40313 0.66987 0.685246 0.671542 0.68938 0.691478
          0.699922 0.688315 0.687264 0.697874 0.708015 0.696201
          0.70368 0.690565 0.698809 0.695758 0.705506 0.703067
          0.701479 0.68694 0.704085 0.705038 0.713148 0.698119
          0.705421 0.718151 0.703733 0.700188 0.707668 0.715551
          0.699429 0.712663 0.710291 0.721303 0.405821 0.683441
          0.681633 0.694037 0.688444 0.688084 0.693063 0.682248
          0.688087 0.72368 0.699267 0.694596 0.700591 0.70592
          0.705765 0.706092 0.691429 0.708234 0.715051 0.694825
          0.721787 0.712837 0.720767 0.712434 0.688243 0.712511
          0.697308 0.709756 0.711438 0.716003 0.704144 0.704923
          0.714355 0.707645 0.428104 0.705165 0.697303 0.705853
          0.704394 0.71794 0.690228 0.702261 0.709646 0.688985
          0.710086 0.681421 0.695486 0.711446 0.683393 0.699243
          0.693582 0.699872 0.69971 0.689903 0.703906 0.702707
          0.702723 0.715231 0.695461 0.711381 0.707564 0.706532
          0.709505 0.705762 0.710755 0.711949 0.69962 0.721168
          0.395592 0.672957 0.689618 0.689762 0.689611 0.681767
          0.70002 0.685111 0.679646 0.681227 0.695861 0.69277
          0.707621 0.693777 0.708904 0.704826 0.691873 0.692984
          0.71087 0.707366 0.692322 0.698194 0.68388 0.691981
          0.701966 0.697256 0.693353 0.695678 0.693794 0.703005
          0.693462 0.699575 0.693225 0.691709 0.431993 0.680028
          0.704822 0.693702 0.692346 0.698665 0.7086 0.682056
          0.690036 0.714015 0.702354 0.698538 0.710311 0.679676
          0.706363 0.699421 0.702791 0.705139 0.708879 0.721108
          0.695405 0.696745 0.694286 0.691855 0.699675 0.694667
          0.710481 0.71499 0.699299 0.682045 0.699803 0.70088
          0.688445 0.687904 0.42312 0.684377 0.701675 0.68511
          0.677145 0.691502 0.679106 0.710427 0.701718 0.691164
          0.676258 0.694285 0.689573 0.709309 0.714083 0.707255
          0.697747 0.708698 0.698962 0.709388 0.700036 0.68574
          0.68974 0.687346 0.695288 0.69083 0.690984 0.683695
          0.699321 0.697743 0.682937 0.686339 0.69564 0.705064
          0.411502 0.667191 0.683367 0.689602 0.694043 0.687674
          0.686924 0.706209 0.696696 0.70751 0.684552 0.698881
          0.700647 0.692463 0.709234 0.713943 0.692417 0.682575
          0.698851 0.700628 0.70588 0.714027 0.711123 0.718113
          0.72082 0.721241 0.721169 0.709721 0.710879 0.704467
          0.70191 0.712351 0.720416 0.689227 0.415301 0.669901
          0.687925 0.692647 0.686507 0.684086 0.678881 0.692555
          0.703035 0.688067 0.695859 0.69687 0.708976 0.684897
          0.69475 0.707626 0.69207 0.694062 0.693605 0.698481
          0.704558 0.703672 0.704638 0.699142 0.699628 0.689865
          0.696834 0.700194 0.7042 0.687659 0.687171 0.693132
          0.704817 0.688201 0.412486 0.683857 0.689503 0.682885
          0.68946 0.692603 0.698997 0.682653 0.678593 0.698924
          0.709795 0.684789 0.694992 0.693027 0.693261 0.694486
          0.686455 0.699174 0.707047 0.712736 0.71506 0.686702
          0.698908 0.692879 0.680649 0.696369 0.702164 0.693789
          0.68852 0.695584 0.683348 0.684875 0.697411 0.691728
          0.412139 0.708167 0.691555 0.719061 0.691632 0.687438
          0.697608 0.698312 0.688028 0.706092 0.705128 0.707032
          0.703384 0.707118 0.685096 0.698826 0.69011 0.697369
          0.724684 0.690322 0.702944 0.713085 0.696145 0.709674
          0.717879 0.721872 0.719858 0.707801 0.696753 0.708092
          0.726615 0.708743 0.715663 0.727971 0.420153 0.693493
          0.691097 0.713307 0.700488 0.71256 0.706203 0.690906
          0.702293 0.694833 0.703443 0.694474 0.71162 0.69967
          0.68892 0.70599 0.706481 0.698939 0.709675 0.699142
          0.700662 0.703676 0.701219 0.699783 0.724257 0.692348
          0.700989 0.703449 0.712752 0.698042 0.728652 0.708486
          0.712895 0.704794 0.404014 0.665786 0.698392 0.692622
          0.683994 0.682588 0.683342 0.696563 0.697968 0.703094
          0.686193 0.686971 0.707462 0.683589 0.713045 0.698376
          0.691463 0.702175 0.70083 0.696155 0.709035 0.698843
          0.689421 0.701669 0.705919 0.699559 0.692187 0.711359
          0.699772 0.712224 0.688923 0.708964 0.699 0.695096
          0.425983 0.684869 0.70049 0.692417 0.700674 0.694013
          0.686114 0.7104 0.691248 0.69037 0.687537 0.71517
          0.70637 0.705907 0.701664 0.699393 0.701302 0.713684
          0.708794 0.708641 0.70184 0.7059 0.708058 0.69866
          0.713269 0.711208 0.703761 0.69729 0.704821 0.708005
          0.69232 0.701137 0.707673 0.694964 0.42482 0.681803
          0.691104 0.6873 0.683136 0.679947 0.693366 0.708088
          0.690188 0.695364 0.705299 0.685203 0.707964 0.704641
          0.708344 0.687405 0.700823 0.712683 0.701826 0.711533
          0.694263 0.690939 0.682958 0.691282 0.701712 0.675368
          0.695519 0.689925 0.688932 0.691814 0.683775 0.692842
          0.687988 0.689314 0.403925 0.683833 0.701609 0.688426
          0.712539 0.702508 0.706128 0.687786 0.694059 0.707199
          0.706457 0.692657 0.687499 0.694641 0.6981 0.695738
          0.70406 0.702737 0.704505 0.707469 0.690666 0.703157
          0.686868 0.69474 0.690347 0.701165 0.697516 0.689506
          0.687765 0.689906 0.686764 0.690229 0.698121 0.668396
          0.419869 0.692748 0.694289 0.697251 0.711358 0.704507
          0.711076 0.69884 0.700215 0.713984 0.692144 0.707965
          0.689479 0.691204 0.706906 0.697884 0.696842 0.697144
          0.704701 0.700944 0.696392 0.681059 0.68039 0.691818
          0.691284 0.696291 0.694278 0.686512 0.687519 0.684781
          0.688294 0.691239 0.681411 0.6911 0.431773 0.70098
          0.694891 0.691342 0.707843 0.705762 0.704412 0.7142
          0.696445 0.695346 0.706658 0.695241 0.691992 0.702078
          0.695074 0.702462 0.705211 0.69091 0.709229 0.703861
          0.699484 0.674028 0.681518 0.696273 0.68447 0.703135
          0.675398 0.695129 0.695478 0.694479 0.704474 0.674578
          0.689248 0.706762 0.405997 0.66513 0.702574 0.701834
          0.680836 0.679614 0.681172 0.7045 0.696914 0.700548
          0.693609 0.70354 0.711525 0.692677 0.714445 0.708149
          0.703499 0.67836 0.696316 0.703989 0.691409 0.703347
          0.733337 0.711893 0.713205 0.708923 0.708726 0.717403
          0.706282 0.704796 0.705684 0.721394 0.711904 0.698265
          0.407081 0.675437 0.694703 0.689786 0.682246 0.684229
          0.681467 0.711465 0.694543 0.699561 0.686245 0.706097
          0.697559 0.701207 0.709015 0.693301 0.695097 0.704685
          0.694969 0.7016 0.692905 0.701104 0.694367 0.684712
          0.708187 0.690417 0.693766 0.694153 0.691863 0.694742
          0.693114 0.688485 0.688981 0.693403 0.407336 0.679016
          0.681142 0.686267 0.69918 0.697413 0.689995 0.695542
          0.682038 0.699096 0.707291 0.69668 0.702483 0.695777
          0.69969 0.70551 0.692223 0.700831 0.724195 0.683359
          0.712252 0.715787 0.708063 0.707059 0.723551 0.727559
          0.710694 0.694692 0.701683 0.713617 0.729425 0.714496
          0.702279 0.717437 0.41762 0.682374 0.696119 0.688334
          0.709015 0.706235 0.680994 0.714556 0.707346 0.703059
          0.697391 0.709563 0.682272 0.700989 0.694617 0.690541
          0.697877 0.704643 0.691974 0.706406 0.698278 0.702693
          0.697221 0.708688 0.692621 0.686887 0.699293 0.714691
          0.683835 0.696274 0.679998 0.69043 0.687653 0.686483
          0.43168 0.689359 0.703401 0.697574 0.697275 0.694189
          0.704561 0.698394 0.709162 0.711047 0.692481 0.701144
          0.709263 0.691929 0.702926 0.706081 0.682908 0.707602
          0.715597 0.689463 0.697983 0.687855 0.702487 0.701155
          0.703326 0.680378 0.697055 0.694704 0.681192 0.708466
          0.70232 0.689782 0.699537 0.684573 0.424326 0.689073
          0.691646 0.70178 0.697323 0.705775 0.686229 0.706356
          0.691784 0.712086 0.691423 0.719997 0.703905 0.68504
          0.705644 0.693799 0.712755 0.701629 0.690672 0.704483
          0.705989 0.686663 0.696066 0.69517 0.695354 0.694491
          0.71419 0.696582 0.68941 0.705846 0.684859 0.690125
          0.705086 0.687134 0.422208 0.690944 0.692646 0.707722
          0.693957 0.696126 0.690761 0.695217 0.68745 0.681943
          0.686075 0.683208 0.710646 0.705641 0.689108 0.688295
          0.709667 0.70629 0.698958 0.690457 0.694959 0.694917
          0.702774 0.717584 0.70376 0.696703 0.696051 0.698223
          0.713239 0.712144 0.703423 0.690185 0.72204 0.712972
          0.415402 0.682126 0.674125 0.689435 0.693871 0.683578
          0.689339 0.687511 0.706413 0.700073 0.702501 0.699744
          0.702437 0.72206 0.686976 0.718496 0.694481 0.706236
          0.701677 0.69856 0.689348 0.692984 0.683308 0.686147
          0.694047 0.691886 0.688146 0.688669 0.686992 0.692738
          0.684201 0.687159 0.69388 0.694706 0.42463 0.714139
          0.694099 0.704462 0.708847 0.686297 0.700936 0.702636
          0.705659 0.700908 0.709879 0.680417 0.708379 0.706902
          0.702306 0.6817 0.691988 0.714476 0.707666 0.703216
          0.680476 0.680052 0.689749 0.701289 0.698012 0.676909
          0.683728 0.698324 0.685043 0.676821 0.699762 0.69547
          0.693595 0.691548 0.424582 0.677999 0.707661 0.70987
          0.678596 0.689258 0.690141 0.702219 0.695817 0.701316
          0.692187 0.709061 0.700928 0.701769 0.693426 0.723963
          0.699771 0.692212 0.704061 0.701289 0.695788 0.708633
          0.706743 0.695021 0.714489 0.67993 0.700852 0.701125
          0.695185 0.702153 0.693864 0.708212 0.700028 0.682828
          0.423761 0.694038 0.709813 0.699591 0.690641 0.703693
          0.70649 0.698323 0.699464 0.694698 0.692364 0.711672
          0.695954 0.699788 0.705925 0.69198 0.718581 0.710441
          0.700685 0.6918 0.699925 0.731898 0.70205 0.71152
          0.717756 0.705157 0.707555 0.704677 0.725036 0.710913
          0.705244 0.714626 0.714749 0.706619 0.408992 0.664262
          0.691917 0.695834 0.684167 0.689994 0.68846 0.695059
          0.696954 0.700677 0.705209 0.699544 0.711732 0.692309
          0.71141 0.701635 0.71561 0.696726 0.689024 0.703883
          0.701436 0.709107 0.700041 0.717639 0.71724 0.702718
          0.709576 0.705573 0.688554 0.703873 0.708909 0.711696
          0.714481 0.697709 0.400342 0.664412 0.693805 0.686765
          0.69709 0.705979 0.703135 0.699274 0.695392 0.690791
          0.687072 0.691117 0.701095 0.701887 0.709627 0.699694
          0.70694 0.705262 0.716302 0.701419 0.711866 0.717734
          0.719777 0.697427 0.714987 0.702256 0.713689 0.700885
          0.712422 0.724527 0.706118 0.710632 0.718165 0.700208
          0.418088 0.691123 0.695015 0.701485 0.71027 0.703961
          0.699433 0.692122 0.694563 0.709284 0.694593 0.705966
          0.706629 0.701916 0.704959 0.68523 0.696917 0.713361
          0.694489 0.69704 0.709691 0.710991 0.69344 0.700332
          0.712498 0.717381 0.705925 0.725795 0.704639 0.710397
          0.695231 0.710715 0.710375 0.70453 0.423265 0.677952
          0.701199 0.69674 0.714119 0.695523 0.70581 0.696387
          0.700417 0.700302 0.68892 0.71197 0.702977 0.703022
          0.707863 0.696674 0.697007 0.704624 0.70464 0.701963
          0.719245 0.719313 0.697592 0.705044 0.705748 0.714647
          0.70099 0.719067 0.702848 0.707967 0.691786 0.702877
          0.705108 0.714686 0.41319 0.675029 0.683594 0.681955
          0.696152 0.689165 0.697623 0.707239 0.688789 0.71197
          0.705888 0.698355 0.696673 0.710294 0.68871 0.709177
          0.688324 0.706861 0.705144 0.698993 0.712797 0.710503
          0.713684 0.706628 0.707171 0.698952 0.697829 0.706596
          0.707383 0.706258 0.706082 0.688597 0.702661 0.714541
          0.426294 0.684578 0.696642 0.706182 0.706274 0.701713
          0.685251 0.710684 0.696431 0.697334 0.693192 0.712338
          0.687228 0.716043 0.69738 0.700162 0.695495 0.714049
          0.700261 0.701845 0.714872 0.712889 0.718933 0.694419
          0.716576 0.700586 0.722965 0.720782 0.704261 0.707751
          0.693804 0.716573 0.713634 0.686087 0.41343 0.668047
          0.674505 0.69071 0.679849 0.704122 0.693306 0.686551
          0.689864 0.700133 0.695567 0.706946 0.69657 0.709634
          0.699501 0.69453 0.70832 0.6851 0.702559 0.702789
          0.707829 0.715924 0.719168 0.706982 0.708483 0.701004
          0.712808 0.716184 0.708291 0.704723 0.702992 0.711281
          0.70147 0.695432 0.411037 0.717312 0.694641 0.708338
          0.690736 0.706003 0.706662 0.690173 0.678518 0.707025
          0.692642 0.709782 0.698684 0.705084 0.69569 0.712641
          0.696561 0.704653 0.696544 0.704705 0.693777 0.703607
          0.709711 0.704701 0.711959 0.721659 0.693003 0.713977
          0.705248 0.693261 0.709935 0.721138 0.725184 0.711607
          0.409041 0.67037 0.704391 0.695585 0.691922 0.690074
          0.685355 0.70175 0.711136 0.700874 0.68914 0.700315
          0.70722 0.684751 0.698483 0.697118 0.705698 0.696024
          0.6898 0.710915 0.696037 0.701457 0.701251 0.703073
          0.703699 0.687345 0.707593 0.69892 0.69923 0.716785
          0.684056 0.703196 0.703505 0.679637 0.415706 0.674941
          0.703992 0.699487 0.691621 0.70728 0.68163 0.707298