<?xml version="1.0"?>
<VTKFile type="PolyData" version="0.1" byte_order="LittleEndian" header_type="UInt32" compressor="vtkZLibDataCompressor">
  <PolyData>
    <Piece NumberOfPoints="7920" NumberOfVerts="0" NumberOfLines="0" NumberOfStrips="0" NumberOfPolys="0">
      <PointData Scalars="Calcium Concentration">
        <DataArray type="Float32" Name="Calcium Concentration" format="ascii" RangeMin="0.6331070065498352" RangeMax="0.7476279735565186">
          0.669786 0.695359 0.698307 0.715419 0.709048 0.697911
          0.704696 0.693111 0.710274 0.69794 0.705392 0.695522
          0.700308 0.706749 0.695162 0.69862 0.714351 0.69002
          0.6822 0.714141 0.683339 0.68856 0.679394 0.688524
          0.691285 0.686725 0.705179 0.696679 0.689441 0.705223
          0.707732 0.694318 0.687312 0.683236 0.70569 0.707491
          0.70483 0.701081 0.701339 0.696993 0.694511 0.700275
          0.700908 0.695855 0.701826 0.70279 0.701207 0.708413
          0.694326 0.704751 0.705335 0.680754 0.700442 0.690609
          0.686878 0.672921 0.682115 0.686137 0.685944 0.696686
          0.683972 0.691848 0.700022 0.685797 0.687705 0.698842
          0.650543 0.6876 0.68296 0.687573 0.692321 0.68201
          0.688075 0.692098 0.710299 0.694128 0.697906 0.701915
          0.706851 0.702802 0.710652 0.714992 0.714609 0.707221
          0.695558 0.714955 0.708175 0.710776 0.718014 0.702313
          0.713934 0.705596 0.71219 0.699892 0.712738 0.704248
          0.713363 0.712005 0.709783 0.67354 0.687798 0.693382
          0.709922 0.699107 0.698753 0.70157 0.703909 0.711212
          0.700763 0.691613 0.707225 0.709574 0.698255 0.699769
          0.698383 0.707288 0.712149 0.693571 0.708253 0.700037
          0.685789 0.69205 0.69059 0.694966 0.698553 0.701808
          0.701121 0.691912 0.697419 0.698712 0.697864 0.691474
          0.647818 0.688404 0.686505 0.688821 0.684103 0.686529
          0.683376 0.703661 0.699648 0.692017 0.70464 0.69429
          0.708559 0.693427 0.70556 0.692077 0.701442 0.705667
          0.690915 0.710468 0.697104 0.698802 0.682177 0.69552
          0.684804 0.685075 0.691831 0.693117 0.679467 0.68921
          0.695452 0.700456 0.697934 0.66794 0.696886 0.70426
          0.707602 0.705965 0.699677 0.70617 0.686471 0.704669
          0.706362 0.704797 0.696993 0.69632 0.689477 0.703564
          0.698272 0.685869 0.694242 0.705048 0.691739 0.711012
          0.69375 0.694786 0.702258 0.715071 0.702227 0.705186
          0.702904 0.703746 0.719338 0.709278 0.696132 0.704045
          0.652889 0.686178 0.682908 0.686461 0.696107 0.688298
          0.683825 0.685865 0.724847 0.7001 0.692542 0.703385
          0.68834 0.703004 0.689766 0.695203 0.696082 0.692808
          0.691162 0.691243 0.707924 0.694815 0.702054 0.710368
          0.717039 0.721204 0.713041 0.725762 0.712426 0.714273
          0.709269 0.714776 0.713423 0.663648 0.6867 0.699346
          0.680465 0.705711 0.69299 0.682851 0.683257 0.706115
          0.711192 0.691639 0.691503 0.694733 0.69559 0.706263
          0.702424 0.698087 0.69339 0.690402 0.69603 0.705182
          0.680712 0.679441 0.685265 0.689909 0.695635 0.687094
          0.679451 0.680061 0.688248 0.688186 0.676224 0.69531
          0.666286 0.686648 0.68808 0.680449 0.680858 0.689452
          0.689649 0.697681 0.70283 0.706483 0.69393 0.69217
          0.696095 0.685339 0.697775 0.689442 0.687795 0.711224
          0.69796 0.699191 0.700423 0.695107 0.708207 0.696486
          0.714929 0.708278 0.706801 0.710498 0.711529 0.708189
          0.708421 0.70812 0.719905 0.663154 0.692471 0.699311
          0.704256 0.707873 0.689131 0.696115 0.694431 0.689614
          0.697335 0.698135 0.696215 0.695141 0.701879 0.705043
          0.702107 0.697877 0.705968 0.683207 0.706176 0.707032
          0.687363 0.702722 0.70331 0.708162 0.714567 0.71054
          0.704151 0.694808 0.7154 0.706395 0.71486 0.710351
          0.675368 0.697479 0.700995 0.694426 0.711228 0.689505
          0.710591 0.702036 0.691069 0.704383 0.693798 0.698759
          0.703918 0.697946 0.695317 0.69934 0.688858 0.692599
          0.702168 0.701471 0.715694 0.703829 0.709503 0.716088
          0.70115 0.71092 0.706453 0.706597 0.71361 0.720972
          0.703639 0.707089 0.706412 0.661924 0.674278 0.688166
          0.681782 0.682269 0.689659 0.691066 0.700326 0.702961
          0.700954 0.703886 0.689299 0.699463 0.692339 0.710533
          0.691125 0.702117 0.704091 0.688602 0.701776 0.684319
          0.712998 0.692652 0.684387 0.689665 0.702125 0.692935
          0.673097 0.698842 0.699081 0.697447 0.69726 0.703955
          0.667708 0.700701 0.691655 0.700885 0.693674 0.706342
          0.706019 0.70638 0.699292 0.703596 0.700975 0.700588
          0.694528 0.704154 0.694474 0.703852 0.712204 0.708213
          0.6826 0.699732 0.692152 0.696392 0.686796 0.694875
          0.701993 0.69893 0.689532 0.695628 0.697572 0.695237
          0.69888 0.703507 0.70123 0.67463 0.695069 0.702356
          0.715893 0.69852 0.702663 0.683896 0.708189 0.7127
          0.700199 0.695393 0.687669 0.702554 0.715112 0.707196
          0.703634 0.682317 0.702718 0.688637 0.689798 0.698874
          0.683441 0.687656 0.678049 0.688296 0.691484 0.695381
          0.687017 0.692582 0.698861 0.687298 0.684591 0.694607
          0.650235 0.690361 0.703407 0.690415 0.68218 0.68968
          0.692525 0.685358 0.701819 0.701006 0.719666 0.706403
          0.702848 0.697485 0.697057 0.711668 0.694294 0.707061
          0.709846 0.697283 0.70199 0.713678 0.709711 0.700252
          0.722796 0.70087 0.710615 0.714186 0.7191 0.712838
          0.714655 0.706085 0.706994 0.681943 0.700328 0.700172
          0.712795 0.696408 0.699711 0.70427 0.717832 0.709948
          0.689999 0.70693 0.70642 0.697094 0.696723 0.715733
          0.705463 0.699229 0.703144 0.705472 0.6975 0.68671
          0.689329 0.681444 0.693431 0.688849 0.687469 0.685929
          0.687132 0.702592 0.692035 0.685922 0.681184 0.691681
          0.659837 0.694424 0.690046 0.691972 0.685129 0.692291
          0.687051 0.696019 0.69009 0.706578 0.701665 0.696748
          0.700472 0.689044 0.696641 0.70183 0.704541 0.711285
          0.69592 0.700519 0.691129 0.700256 0.68418 0.68517
          0.681908 0.69017 0.698385 0.706516 0.70605 0.708104
          0.702394 0.682545 0.711465 0.67323 0.685301 0.667925
          0.688993 0.702737 0.684471 0.697576 0.688664 0.709619
          0.692795 0.694972 0.704501 0.699253 0.704109 0.691285
          0.693348 0.700399 0.696773 0.70451 0.695104 0.704433
          0.705376 0.704658 0.708013 0.729531 0.707439 0.700235
          0.708388 0.702343 0.709763 0.710583 0.715149 0.720461
          0.651417 0.691282 0.689979 0.686482 0.689729 0.691413
          0.688992 0.70255 0.699984 0.698922 0.694173 0.697694
          0.701171 0.696655 0.700708 0.702813 0.707843 0.695241
          0.701668 0.697548 0.691387 0.696926 0.684683 0.687518
          0.710551 0.691818 0.687233 0.683277 0.695649 0.698166
          0.686315 0.701099 0.699878 0.666323 0.695589 0.703905
          0.697121 0.70577 0.697896 0.690613 0.692151 0.711436
          0.696764 0.701167 0.697251 0.688346 0.697153 0.688475
          0.699439 0.707163 0.699686 0.694774 0.683362 0.697105
          0.674932 0.678219 0.695056 0.688932 0.687522 0.686306
          0.698267 0.687015 0.692058 0.693256 0.681647 0.686576
          0.674331 0.697795 0.70511 0.690961 0.703596 0.694842
          0.713385 0.686909 0.692859 0.707107 0.694582 0.699728
          0.704766 0.689129 0.697241 0.706565 0.700345 0.713821
          0.697281 0.701014 0.691694 0.679012 0.690566 0.686459
          0.692793 0.690811 0.692186 0.697937 0.692306 0.699233
          0.697172 0.701198 0.693117 0.667358 0.702149 0.691449
          0.705353 0.698409 0.707164 0.711897 0.687115 0.709094
          0.697694 0.684179 0.718624 0.692497 0.693208 0.705535
          0.692878 0.712123 0.692582 0.71325 0.701835 0.712032
          0.705076 0.713658 0.700837 0.716441 0.702835 0.694365
          0.714738 0.706716 0.726374 0.700402 0.704823 0.703629
          0.686468 0.68137 0.703773 0.717997 0.696842 0.702938
          0.695298 0.700016 0.700916 0.698271 0.703128 0.701628
          0.701781 0.69059 0.682027 0.715806 0.704678 0.700121
          0.699218 0.702167 0.721745 0.689809 0.714138 0.707022
          0.713265 0.704393 0.708788 0.695383 0.69488 0.717984
          0.71701 0.726815 0.709006 0.682725 0.705765 0.692009
          0.699181 0.692881 0.69971 0.705973 0.693844 0.705121
          0.693081 0.706054 0.698862 0.714128 0.693765 0.707703
          0.711838 0.703726 0.699047 0.687338 0.705359 0.707279
          0.717635 0.704784 0.71292 0.720022 0.717424 0.714279
          0.716021 0.70317 0.705783 0.711591 0.718221 0.713194
          0.671297 0.697283 0.694063 0.708907 0.694877 0.706438
          0.702496 0.700004 0.705627 0.699826 0.697468 0.679994
          0.693805 0.69003 0.70095 0.711092 0.692339 0.700129
          0.689499 0.690464 0.68338 0.680802 0.704758 0.677361
          0.703139 0.693541 0.693206 0.695058 0.699722 0.691103
          0.685613 0.693022 0.689886 0.662084 0.702026 0.698542
          0.699399 0.704164 0.700624 0.70845 0.695112 0.711348
          0.695224 0.709749 0.700725 0.712653 0.70072 0.701064
          0.700159 0.706488 0.699954 0.712502 0.703605 0.692742
          0.689746 0.687545 0.684709 0.691592 0.70093 0.69372
          0.696898 0.701559 0.691528 0.684794 0.699199 0.696755
          0.66686 0.689842 0.705422 0.709693 0.712869 0.694214
          0.6971 0.69282 0.699229 0.713452 0.694104 0.700876
          0.6893 0.70452 0.697956 0.710742 0.708338 0.681202
          0.690582 0.703514 0.699836 0.689785 0.692247 0.687939
          0.703914 0.68249 0.687102 0.681743 0.686167 0.686702
          0.681399 0.687599 0.681905 0.660853 0.691591 0.690805
          0.686008 0.694779 0.692298 0.702197 0.690312 0.705141
          0.700288 0.688385 0.69563 0.693602 0.69179 0.696097
          0.695828 0.702297 0.6875 0.69006 0.704726 0.697635
          0.69117 0.689576 0.691793 0.696147 0.684533 0.686285
          0.685164 0.690548 0.71622 0.698596 0.67679 0.700136
          0.667831 0.701406 0.68256 0.69169 0.701958 0.697873
          0.710908 0.701294 0.710303 0.696395 0.678569 0.70259
          0.699804 0.698695 0.694574 0.697355 0.703251 0.693239
          0.69872 0.699754 0.683473 0.682111 0.684784 0.698097
          0.692387 0.678314 0.681114 0.707846 0.696397 0.689759
          0.697732 0.682208 0.679784 0.674354 0.695925 0.693593
          0.702236 0.699062 0.69537 0.70315 0.701513 0.710616
          0.693494 0.698171 0.705278 0.69384 0.680803 0.718678
          0.695451 0.701973 0.708554 0.693766 0.704786 0.690118
          0.692568 0.686509 0.688883 0.696796 0.679086 0.703861
          0.696552 0.687933 0.696303 0.682369 0.675079 0.687063
          0.655737 0.690688 0.6926 0.689843 0.690573 0.680326
          0.690069 0.697816 0.69173 0.707284 0.700139 0.699476
          0.706589 0.708845 0.710758 0.698761 0.695214 0.696916
          0.704756 0.692947 0.716211 0.711898 0.710937 0.712566
          0.715213 0.716233 0.696653 0.708244 0.715032 0.692925
          0.700689 0.699863 0.723594 0.655944 0.698997 0.698835
          0.687666 0.70709 0.699522 0.6899 0.6908 0.697434
          0.694452 0.691413 0.695903 0.699025 0.687468 0.697843
          0.683211 0.711448 0.702561 0.686316 0.697728 0.693027
          0.726857 0.71125 0.692377 0.709725 0.690258 0.713763
          0.713457 0.711943 0.714818 0.707947 0.712738 0.709814
          0.675884 0.700294 0.697391 0.712057 0.7092 0.70351
          0.699223 0.681433 0.71871 0.697891 0.696858 0.705114
          0.698071 0.694178 0.702997 0.702262 0.699237 0.704729
          0.699143 0.698437 0.704187 0.697903 0.704302 0.699162
          0.695226 0.706876 0.700146 0.704222 0.705155 0.713938
          0.72248 0.711968 0.706487 0.659177 0.68634 0.69865
          0.68729 0.686279 0.69555 0.693023 0.691239 0.686605
          0.712043 0.710899 0.689074 0.703576 0.699741 0.701775
          0.698192 0.69699 0.713964 0.678426 0.716648 0.697451
          0.690387 0.705661 0.702953 0.687579 0.701228 0.699962
          0.689762 0.69206 0.6912 0.686139 0.710352 0.703356
          0.659232 0.698694 0.687476 0.67617 0.686254 0.687102
          0.693196 0.689268 0.706638 0.700564 0.702125 0.695837
          0.701995 0.701943 0.698357 0.698136 0.690833 0.702435
          0.700992 0.707448 0.695003 0.689316 0.684169 0.682549
          0.691795 0.703249 0.696184 0.684361 0.707322 0.683356
          0.692199 0.682914 0.684895 0.643335 0.684364 0.702525
          0.696975 0.696871 0.676879 0.695273 0.699042 0.688258
          0.686271 0.696173 0.700354 0.706964 0.711532 0.71294
          0.706179 0.704315 0.695169 0.702263 0.694916 0.70456
          0.689418 0.699492 0.719416 0.705683 0.699211 0.70703
          0.694514 0.699781 0.695929 0.684919 0.68617 0.691759
          0.667526 0.689904 0.703058 0.703305 0.694231 0.697333
          0.697229 0.702283 0.702502 0.694372 0.71021 0.690111
          0.703941 0.702958 0.693887 0.689112 0.70141 0.699244
          0.713239 0.701313 0.679676 0.691626 0.677385 0.691107
          0.697564 0.687854 0.686213 0.697283 0.695832 0.689968
          0.680758 0.692015 0.686502 0.634617 0.67321 0.698685
          0.702112 0.679285 0.690278 0.693211 0.704894 0.70358
          0.695002 0.685292 0.707575 0.69883 0.700594 0.703032
          0.686705 0.697071 0.694101 0.702345 0.697681 0.69776
          0.706493 0.712678 0.705713 0.704945 0.708447 0.724513
          0.711578 0.715415 0.698942 0.718193 0.710131 0.723781
          0.675942 0.699201 0.70466 0.698238 0.693681 0.692057
          0.69411 0.700435 0.704268 0.694686 0.709847 0.701688
          0.690928 0.700817 0.692717 0.706474 0.70446 0.711071
          0.704489 0.713281 0.697646 0.699806 0.70525 0.707562
          0.699236 0.712939 0.685823 0.680103 0.692766 0.703902
          0.685497 0.695937 0.688984 0.668974 0.695668 0.697933
          0.693304 0.701184 0.696189 0.693555 0.696202 0.688874
          0.702836 0.693516 0.712474 0.703405 0.687312 0.71508
          0.695129 0.709454 0.689159 0.701306 0.713292 0.695891
          0.693945 0.681939 0.698401 0.685888 0.685271 0.688697
          0.690546 0.699369 0.712065 0.705471 0.687089 0.689356
          0.664579 0.709592 0.708494 0.708768 0.685052 0.699202
          0.703522 0.70316 0.7019 0.704688 0.709972 0.695758
          0.701048 0.709042 0.701255 0.714583 0.707389 0.690517
          0.702154 0.704157 0.693501 0.697605 0.699052 0.70564
          0.685105 0.712325 0.68618 0.698284 0.701284 0.683528
          0.693644 0.679421 0.695518 0.67465 0.716992 0.703697
          0.691515 0.701021 0.697894 0.703932 0.695878 0.709759
          0.701304 0.698805 0.699964 0.699918 0.682888 0.713141
          0.706034 0.711532 0.709907 0.694256 0.684746 0.708883
          0.707642 0.70007 0.717853 0.721377 0.707441 0.711392
          0.708168 0.710876 0.710657 0.703984 0.70249 0.714752
          0.666121 0.691952 0.702404 0.701167 0.707403 0.709644
          0.69633 0.702448 0.704812 0.716822 0.693794 0.699326
          0.687798 0.712541 0.689315 0.709327 0.704572 0.696759
          0.688477 0.684667 0.685723 0.687306 0.691774 0.684335
          0.700194 0.693032 0.686846 0.684071 0.692943 0.695776
          0.702016 0.690939 0.680934 0.673197 0.693677 0.688282
          0.697471 0.707988 0.70372 0.704323 0.696493 0.699454
          0.700444 0.697885 0.700138 0.706795 0.69385 0.70403
          0.696986 0.70759 0.712153 0.68766 0.707026 0.709384
          0.709132 0.7109 0.700688 0.716604 0.710469 0.696723
          0.711748 0.717476 0.70308 0.706991 0.712797 0.707589
          0.648056 0.690214 0.701358 0.691789 0.684948 0.69542
          0.70046 0.70681 0.699251 0.692659 0.694963 0.687455
          0.706401 0.70796 0.701175 0.702 0.704986 0.702758
          0.707824 0.70372 0.712509 0.705933 0.707472 0.735059
          0.709 0.708271 0.724472 0.721372 0.713947 0.698304
          0.716318 0.713322 0.699854 0.641315 0.685191 0.685835
          0.686336 0.693289 0.701874 0.698802 0.679055 0.691682
          0.723674 0.702624 0.688205 0.6965 0.700346 0.710322
          0.697504 0.708401 0.682556 0.698942 0.697005 0.707458
          0.717377 0.71143 0.700235 0.722538 0.715788 0.708635
          0.692568 0.715359 0.702374 0.711434 0.71255 0.72078
          0.660689 0.675457 0.683731 0.684612 0.677866 0.690258
          0.687685 0.701263 0.711164 0.694614 0.691636 0.713046
          0.700786 0.698144 0.696036 0.704994 0.699806 0.707036
          0.689487 0.711874 0.709134 0.721002 0.704493 0.698665
          0.701122 0.694993 0.70465 0.696626 0.709579 0.704107
          0.713723 0.717614 0.714891 0.683869 0.689177 0.690534
          0.697484 0.707883 0.698603 0.687899 0.706031 0.699401
          0.69689 0.684262 0.696753 0.702744 0.693425 0.70408
          0.704221 0.705203 0.708128 0.707088 0.699486 0.700487
          0.723491 0.708837 0.695015 0.711378 0.706831 0.717658
          0.707637 0.70896 0.720526 0.710691 0.696964 0.722127
          0.662758 0.681738 0.699199 0.699051 0.702058 0.713531
          0.685229 0.688277 0.687357 0.719947 0.718109 0.703159
          0.704748 0.686782 0.71032 0.696638 0.697199 0.700461
          0.699374 0.694122 0.700536 0.677179 0.704745 0.698324
          0.690461 0.693838 0.689506 0.683746 0.689798 0.695723
          0.704273 0.694408 0.703672 0.66471 0.697936 0.702482
          0.697181 0.701346 0.69977 0.7174 0.713254 0.692236
          0.6898 0.694387 0.698889 0.694447 0.716186 0.708171
          0.68725 0.691857 0.70125 0.700859 0.696203 0.698541
          0.693934 0.691817 0.689376 0.705405 0.710043 0.704289
          0.701694 0.698811 0.693329 0.690276 0.688023 0.687693
          0.662933 0.7031 0.687436 0.694444 0.685421 0.690314
          0.701761 0.700504 0.696383 0.688565 0.68839 0.68499
          0.704285 0.711138 0.707032 0.691701 0.698217 0.697863
          0.705157 0.691645 0.682217 0.695218 0.69673 0.696986
          0.701513 0.689722 0.696363 0.693062 0.706681 0.682335
          0.696207 0.701775 0.709746 0.642433 0.695225 0.688007
          0.708921 0.676179 0.688293 0.700559 0.694679 0.682032
          0.69851 0.708886 0.699684 0.704952 0.708897 0.711808
          0.692075 0.68696 0.707841 0.701769 0.695133 0.723011
          0.712017 0.706055 0.716223 0.714807 0.706677 0.706833
          0.708935 0.71214 0.696159 0.70978 0.710113 0.70535
          0.636816 0.684499 0.708862 0.698137 0.679856 0.670287
          0.687302 0.697587 0.686462 0.702943 0.705804 0.699227
          0.705543 0.702348 0.701022 0.700485 0.702117 0.69606
          0.702236 0.701728 0.700137 0.694509 0.700028 0.703194
          0.67695 0.686337 0.700482 0.688154 0.686534 0.695358
          0.695953 0.691069 0.70711 0.672992 0.691363 0.683396
          0.686616 0.686402 0.707605 0.680763 0.666665 0.710856
          0.704297 0.690155 0.706866 0.690771 0.687663 0.697904
          0.705351 0.699487 0.700949 0.696274 0.702934 0.69664
          0.696703 0.698859 0.677767 0.696433 0.705934 0.696398
          0.674378 0.696545 0.692546 0.693908 0.713098 0.678219
          0.682906 0.703658 0.710299 0.683571 0.704143 0.706324
          0.720855 0.695948 0.713219 0.698212 0.694083 0.700908
          0.697224 0.679809 0.70109 0.702795 0.70117 0.69016
          0.703642 0.700957 0.700675 0.698196 0.70428 0.715882
          0.71296 0.712055 0.700194 0.705678 0.714831 0.720151
          0.710485 0.715193 0.71651 0.675323 0.707089 0.700664
          0.696783 0.701216 0.687246 0.686543 0.696235 0.715127
          0.6974 0.696341 0.70443 0.697344 0.687047 0.687285
          0.710442 0.698499 0.685742 0.688934 0.696392 0.705058
          0.706878 0.699757 0.70781 0.684856 0.702128 0.712552
          0.702877 0.70452 0.714793 0.70431 0.718501 0.700678
          0.638606 0.693798 0.695195 0.685715 0.692144 0.691389
          0.685303 0.700285 0.697603 0.698992 0.694273 0.710697
          0.69831 0.710493 0.708166 0.706486 0.700885 0.704586
          0.692273 0.700131 0.698798 0.692514 0.691818 0.708658
          0.703838 0.701642 0.707592 0.705321 0.700119 0.683899
          0.705694 0.702578 0.695545 0.676615 0.70776 0.709355
          0.703086 0.699528 0.708803 0.701296 0.704927 0.685669
          0.706417 0.706543 0.694993 0.69057 0.696034 0.70173
          0.699634 0.686228 0.692245 0.702867 0.691459 0.712124
          0.700121 0.703116 0.707907 0.709423 0.696157 0.699647
          0.714812 0.699707 0.697049 0.710805 0.71319 0.710186
          0.654851 0.689108 0.67914 0.690433 0.680646 0.693948
          0.689152 0.703435 0.713429 0.698413 0.705835 0.697797
          0.697301 0.701545 0.691152 0.709191 0.691219 0.697504
          0.69352 0.697222 0.713012 0.686947 0.686892 0.692254
          0.681686 0.681344 0.692555 0.696062 0.686317 0.685078
          0.691608 0.688129 0.700073 0.672035 0.702384 0.693037
          0.691897 0.713199 0.680922 0.692676 0.698393 0.696595
          0.716196 0.709587 0.699585 0.704304 0.701076 0.692806
          0.706852 0.69872 0.699438 0.702804 0.696873 0.697473
          0.690866 0.691238 0.70022 0.698996 0.697587 0.701942
          0.682651 0.694145 0.68262 0.683638 0.686161 0.68237
          0.682541 0.701883 0.695203 0.695349 0.698265 0.688109
          0.692032 0.700121 0.704004 0.70792 0.699707 0.700673
          0.693908 0.696903 0.697971 0.69839 0.691101 0.700822
          0.703482 0.703286 0.691671 0.698653 0.693085 0.693208
          0.694142 0.693805 0.698623 0.68303 0.687836 0.678327
          0.684478 0.700541 0.691108 0.688728 0.705439 0.695658
          0.706367 0.70928 0.676085 0.700758 0.703398 0.695011
          0.706841 0.704887 0.706262 0.706328 0.701698 0.707617
          0.701545 0.706691 0.689547 0.715968 0.692564 0.689362
          0.683427 0.674288 0.690469 0.699915 0.688697 0.683725
          0.683636 0.694128 0.703898 0.691831 0.683288 0.689642
          0.657101 0.687024 0.695949 0.688432 0.689319 0.68533
          0.70297 0.692524 0.682681 0.691696 0.713539 0.702426
          0.700286 0.696145 0.694865 0.692736 0.704389 0.703204
          0.70944 0.690006 0.72097 0.712968 0.710667 0.710421
          0.7018 0.728482 0.715741 0.72617 0.714 0.700754
          0.726758 0.709834 0.710393 0.655764 0.688984 0.689313
          0.679065 0.675533 0.685641 0.711732 0.699158 0.697468
          0.696737 0.713634 0.69497 0.705965 0.714983 0.693509
          0.701996 0.69362 0.709181 0.700233 0.709817 0.690674
          0.685174 0.679715 0.693438 0.690584 0.696798 0.700958
          0.686986 0.689591 0.683044 0.693349 0.696024 0.697092
          0.66628 0.692933 0.680674 0.703772 0.691681 0.68785
          0.685143 0.679211 0.698529 0.705874 0.709795 0.702395
          0.708478 0.693633 0.700848 0.697443 0.702962 0.7036
          0.700145 0.695522 0.724421 0.713223 0.704201 0.730508
          0.713247 0.701885 0.704219 0.695767 0.716928 0.726404
          0.719672 0.708001 0.702913 0.636352 0.694364 0.710901
          0.706343 0.697206 0.701988 0.71161 0.706947 0.68631
          0.714259 0.694423 0.706524 0.70782 0.707656 0.707886
          0.690339 0.706713 0.705112 0.704716 0.694982 0.709792
          0.703045 0.700169 0.706324 0.70261 0.704001 0.696802
          0.700424 0.689052 0.674153 0.673334 0.690095 0.687065
          0.664892 0.706334 0.693457 0.694403 0.699133 0.694754
          0.703762 0.703023 0.698934 0.698832 0.705537 0.706061
          0.710418 0.698885 0.714581 0.695591 0.697256 0.704987
          0.689989 0.704815 0.683062 0.703547 0.684485 0.693596
          0.691311 0.70695 0.678604 0.685768 0.691448 0.699358
          0.68629 0.703444 0.687512 0.660725 0.706222 0.700344
          0.691738 0.703288 0.700245 0.706146 0.695854 0.704219
          0.700883 0.706915 0.694983 0.699078 0.713448 0.688832
          0.707302 0.706602 0.699579 0.713034 0.711661 0.696211
          0.682144 0.697084 0.70325 0.703187 0.692757 0.689534
          0.692367 0.709611 0.681001 0.686873 0.691397 0.694611
          0.667261 0.70312 0.704343 0.696259 0.692282 0.694728
          0.692447 0.690472 0.685665 0.689257 0.691015 0.703802
          0.706296 0.692539 0.688908 0.710633 0.704546 0.691177
          0.699124 0.690001 0.694746 0.709119 0.708813 0.70573
          0.699076 0.712562 0.70039 0.717285 0.714635 0.705763
          0.691366 0.722032 0.712836 0.659741 0.679586 0.688751
          0.691563 0.696637 0.695041 0.690905 0.6987 0.695642
          0.707493 0.712947 0.689803 0.703586 0.682118 0.691779
          0.694119 0.699164 0.700251 0.696274 0.69757 0.687275
          0.68434 0.684837 0.68432 0.692301 0.699199 0.681751
          0.689587 0.693177 0.693132 0.697121 0.693468 0.682572
          0.682582 0.703201 0.685947 0.704475 0.694273 0.699448
          0.689397 0.693695 0.700902 0.718044 0.680284 0.716091
          0.70927 0.698946 0.701109 0.701918 0.711881 0.692098
          0.693193 0.693217 0.692429 0.676114 0.690027 0.694381
          0.692434 0.678975 0.698959 0.678971 0.687379 0.691832
          0.68879 0.705374 0.700775 0.65683 0.701318 0.69327
          0.702538 0.691966 0.692856 0.698072 0.704493 0.686469
          0.705513 0.702176 0.696651 0.703775 0.700451 0.720508
          0.687864 0.688328 0.708237 0.711927 0.701716 0.698003
          0.712811 0.708211 0.704317 0.702479 0.69589 0.704733
          0.701783 0.700964 0.699193 0.691943 0.706958 0.703585
          0.671733 0.700176 0.70302 0.691814 0.702843 0.691463
          0.707372 0.69678 0.702876 0.691915 0.704245 0.695687
          0.698945 0.715424 0.713178 0.685226 0.702242 0.706359
          0.682262 0.695539 0.718906 0.705898 0.708054 0.720371
          0.716433 0.701548 0.691262 0.714714 0.704701 0.688139
          0.712666 0.71533 0.717732 0.651927 0.685637 0.687289
          0.694546 0.694863 0.682796 0.686841 0.693074 0.710057
          0.701058 0.702824 0.689268 0.701715 0.707187 0.704023
          0.706228 0.684563 0.710555 0.686412 0.703458 0.722202
          0.721404 0.711081 0.713224 0.705259 0.692284 0.697313
          0.706576 0.703246 0.704512 0.71151 0.70702 0.711677
          0.653619 0.695843 0.692009 0.685359 0.685557 0.697522
          0.703786 0.69478 0.684853 0.685606 0.69946 0.702744
          0.699377 0.705434 0.699135 0.685993 0.681492 0.701317
          0.703044 0.703703 0.719644 0.721735 0.715911 0.717861
          0.709671 0.698974 0.718261 0.705186 0.70242 0.701188
          0.708172 0.710422 0.712775 0.673655 0.698411 0.68147
          0.697833 0.698787 0.699035 0.692392 0.694156 0.706771
          0.706578 0.699262 0.698688 0.694488 0.70322 0.694525
          0.686242 0.71589 0.699774 0.703896 0.698354 0.71991
          0.704848 0.703067 0.710021 0.70952 0.70995 0.724446
          0.697136 0.708021 0.705212 0.712995 0.732204 0.699579
          0.65804 0.690404 0.713739 0.70339 0.697393 0.689064
          0.700926 0.710155 0.706988 0.67988 0.702574 0.699933
          0.710074 0.684401 0.688068 0.695827 0.707589 0.696751
          0.70633 0.70952 0.709145 0.701259 0.700173 0.711562
          0.705397 0.706329 0.709948 0.718609 0.709736 0.692698
          0.697079 0.716686 0.699819 0.653238 0.685871 0.679291
          0.683331 0.69146 0.688501 0.698009 0.707998 0.695376
          0.705703 0.686054 0.71028 0.703976 0.683243 0.705456
          0.694927 0.695172 0.691249 0.69988 0.708828 0.701161
          0.704448 0.707178 0.699267 0.695706 0.702962 0.695608
          0.698449 0.686032 0.714837 0.707118 0.702756 0.717901
          0.671267 0.696934 0.707758 0.69553 0.705215 0.693093
          0.72043 0.695133 0.693321 0.704549 0.708822 0.688714
          0.712806 0.695006 0.700706 0.702049 0.686035 0.699142
          0.697035 0.683083 0.706342 0.697214 0.700225 0.709995
          0.702614 0.709651 0.721425 0.695945 0.707461 0.692363
          0.706504 0.712669 0.70587 0.659103 0.683507 0.689753
          0.694588 0.694265 0.698784 0.684648 0.698106 0.686792
          0.701048 0.700858 0.691476 0.704216 0.699974 0.698922
          0.712128 0.686989 0.694025 0.704228 0.688943 0.702824
          0.719099 0.691614 0.69547 0.711664 0.717856 0.706935
          0.712175 0.705705 0.700408 0.691398 0.70353 0.706667
          0.673604 0.702453 0.699778 0.685704 0.723361 0.700241
          0.699134 0.689561 0.701173 0.700453 0.725287 0.70018
          0.68681 0.683517 0.704563 0.693207 0.70543 0.701237
          0.706799 0.684138 0.698056 0.714283 0.709204 0.701516
          0.707683 0.706875 0.698862 0.7102 0.703355 0.708428
          0.722281 0.715917 0.718138 0.645731 0.694178 0.677985
          0.704077 0.68221 0.69628 0.698247 0.707937 0.699318
          0.695668 0.698408 0.691386 0.698025 0.694863 0.695155
          0.693886 0.689684 0.709137 0.705533 0.68513 0.694755
          0.696351 0.705915 0.707536 0.707027 0.695882 0.694138
          0.703315 0.702404 0.674953 0.695226 0.70283 0.70164
          0.665041 0.707009 0.697607 0.707463 0.702127 0.695512
          0.708396 0.701684 0.702449 0.701415 0.710164 0.688258
          0.708958 0.69034 0.704301 0.708215 0.705255 0.699826
          0.711242 0.702101 0.683907 0.705358 0.695208 0.700454
          0.695353 0.691873 0.695435 0.693384 0.689119 0.685543
          0.677831 0.697593 0.69829 0.693073 0.688029 0.694788
          0.711789 0.69149 0.701876 0.695053 0.703485 0.715974
          0.699652 0.691304 0.706779 0.685903 0.700177 0.698236
          0.69804 0.706403 0.695033 0.684417 0.702818 0.698874
          0.691233 0.690559 0.675928 0.68724 0.701294 0.684468
          0.683063 0.700269 0.704755 0.692517 0.694581 0.689479
          0.684564 0.692857 0.70343 0.68939 0.695707 0.706384
          0.706486 0.687046 0.701901 0.701595 0.69997 0.71532
          0.686495 0.691704 0.696699 0.706136 0.703888 0.694835
          0.69273 0.699197 0.697717 0.705555 0.701309 0.687302