<?xml version="1.0"?>
<VTKFile type="PolyData" version="0.1" byte_order="LittleEndian" header_type="UInt32" compressor="vtkZLibDataCompressor">
  <PolyData>
    <Piece NumberOfPoints="7920" NumberOfVerts="0" NumberOfLines="0" NumberOfStrips="0" NumberOfPolys="0">
      <PointData Scalars="Calcium Concentration">
        <DataArray type="Float32" Name="Calcium Concentration" format="ascii" RangeMin="0.6262999773025513" RangeMax="0.7405970096588135">
          0.664799 0.69984 0.701328 0.708867 0.703447 0.703215
          0.71133 0.697462 0.70484 0.698979 0.70525 0.693731
          0.699792 0.6986 0.701918 0.703492 0.711595 0.693758
          0.690656 0.717937 0.685132 0.690039 0.682519 0.684649
          0.684082 0.685341 0.700864 0.688407 0.692549 0.705059
          0.706246 0.698277 0.683691 0.676426 0.704 0.699183
          0.702641 0.698383 0.702185 0.697349 0.700943 0.696541
          0.697535 0.693899 0.70542 0.702264 0.693625 0.708844
          0.700733 0.702523 0.709745 0.686666 0.699688 0.687752
          0.694288 0.672553 0.679347 0.685892 0.680089 0.695029
          0.690666 0.693611 0.705643 0.677496 0.688397 0.702079
          0.63916 0.685568 0.689042 0.688062 0.687503 0.688175
          0.687111 0.696734 0.713243 0.693679 0.698656 0.694836
          0.696423 0.702158 0.718739 0.703763 0.72122 0.705437
          0.700253 0.71107 0.706496 0.718455 0.718419 0.694834
          0.71566 0.705747 0.713574 0.703066 0.709393 0.706398
          0.715118 0.715278 0.704111 0.666981 0.692631 0.695103
          0.708479 0.699999 0.699918 0.70948 0.707869 0.701182
          0.696936 0.690688 0.705029 0.708347 0.700963 0.701053
          0.701573 0.701043 0.705413 0.694985 0.709597 0.698861
          0.686623 0.69982 0.696184 0.691007 0.699202 0.70763
          0.695659 0.691101 0.702207 0.695492 0.696248 0.688773
          0.638584 0.689262 0.68466 0.687739 0.681596 0.684517
          0.683475 0.70753 0.698393 0.693554 0.708493 0.698696
          0.705619 0.695386 0.705822 0.68514 0.700098 0.703885
          0.696611 0.707043 0.695081 0.697123 0.68391 0.69802
          0.682285 0.691561 0.688743 0.690373 0.68085 0.696531
          0.691003 0.699486 0.696741 0.666443 0.701898 0.708704
          0.708083 0.703622 0.691809 0.699879 0.688919 0.704654
          0.706484 0.702621 0.701958 0.700986 0.695375 0.707786
          0.694956 0.692554 0.68953 0.703216 0.688729 0.707714
          0.696416 0.699048 0.697543 0.71255 0.699141 0.705227
          0.706978 0.6987 0.722001 0.714514 0.696087 0.710035
          0.644239 0.679716 0.680361 0.687265 0.690247 0.696069
          0.688237 0.688935 0.721968 0.696903 0.692132 0.70322
          0.695444 0.700894 0.689013 0.702318 0.696714 0.696662
          0.692629 0.697363 0.706453 0.699479 0.701272 0.705074
          0.715069 0.720599 0.710381 0.725839 0.715778 0.712095
          0.714703 0.72113 0.715253 0.652492 0.682646 0.69342
          0.677767 0.703755 0.699196 0.682749 0.684931 0.706596
          0.712378 0.688683 0.695136 0.697007 0.691703 0.713109
          0.695339 0.700885 0.695 0.68965 0.698563 0.697149
          0.686781 0.67585 0.687554 0.695683 0.698112 0.694561
          0.687139 0.685598 0.68714 0.691229 0.685481 0.695683
          0.664546 0.687241 0.688676 0.679295 0.680056 0.688655
          0.681943 0.698308 0.704307 0.699663 0.693929 0.696059
          0.702583 0.689929 0.69367 0.695017 0.694787 0.698965
          0.69853 0.700283 0.695076 0.699234 0.713066 0.690652
          0.716731 0.711064 0.711333 0.711295 0.712924 0.71335
          0.70921 0.70469 0.716286 0.6545 0.703329 0.698152
          0.712844 0.706327 0.690265 0.696574 0.69705 0.686385
          0.689231 0.698639 0.689902 0.699368 0.698334 0.707041
          0.703111 0.696496 0.702169 0.673789 0.703869 0.702837
          0.690414 0.697959 0.704785 0.706822 0.712571 0.70286
          0.701915 0.695226 0.711216 0.704 0.714681 0.709448
          0.666029 0.704435 0.699755 0.696523 0.697282 0.687952
          0.711971 0.699227 0.694927 0.699852 0.691518 0.697126
          0.701379 0.702712 0.695391 0.704854 0.684816 0.698463
          0.697127 0.693555 0.709399 0.707667 0.718942 0.710127
          0.695709 0.714634 0.704176 0.704615 0.712643 0.721797
          0.70283 0.711651 0.702024 0.648535 0.678467 0.686406
          0.683346 0.68209 0.684392 0.685918 0.699275 0.69823
          0.697848 0.701469 0.688318 0.700775 0.696417 0.713986
          0.690588 0.694585 0.695317 0.685239 0.702963 0.686744
          0.705701 0.692433 0.688592 0.679909 0.699255 0.686228
          0.684319 0.695316 0.702313 0.693345 0.702026 0.700985
          0.659133 0.697546 0.690718 0.701856 0.695836 0.708689
          0.703941 0.701828 0.693868 0.711969 0.693626 0.703838
          0.69708 0.704437 0.696463 0.701286 0.704812 0.704268
          0.679387 0.705213 0.684865 0.690697 0.685162 0.688655
          0.699589 0.706925 0.697374 0.700417 0.686986 0.700132
          0.701849 0.698403 0.705052 0.670329 0.699941 0.706084
          0.711595 0.695145 0.699853 0.688115 0.715875 0.709996
          0.699502 0.695518 0.69279 0.704177 0.706006 0.713982
          0.701015 0.686086 0.695919 0.696222 0.692976 0.695313
          0.687661 0.686167 0.67198 0.684214 0.697607 0.697858
          0.687723 0.685495 0.691094 0.685796 0.686725 0.692811
          0.641242 0.691682 0.696952 0.694207 0.679299 0.692798
          0.694777 0.690306 0.696785 0.700318 0.715775 0.70666
          0.697536 0.702745 0.696982 0.712799 0.698796 0.702521
          0.706325 0.704298 0.701914 0.713286 0.714473 0.710462
          0.715424 0.702116 0.71395 0.718464 0.717589 0.717215
          0.710211 0.708404 0.705045 0.659684 0.701745 0.690606
          0.710178 0.692266 0.702693 0.704448 0.720532 0.713571
          0.691194 0.707421 0.697474 0.692533 0.696638 0.713066
          0.705524 0.70414 0.709751 0.702907 0.699536 0.683081
          0.690781 0.685299 0.693018 0.689429 0.68152 0.683819
          0.694627 0.695478 0.689852 0.693015 0.682697 0.691032
          0.643902 0.687626 0.687304 0.682338 0.689622 0.687788
          0.689925 0.693736 0.691008 0.700327 0.701094 0.696547
          0.708549 0.683426 0.695441 0.703146 0.70043 0.721808
          0.696279 0.699681 0.6951 0.690288 0.68655 0.687684
          0.683562 0.686783 0.696653 0.706778 0.695268 0.708974
          0.704345 0.684491 0.706226 0.662264 0.694049 0.670966
          0.688083 0.709118 0.682822 0.691641 0.687764 0.7037
          0.699179 0.694777 0.69816 0.699873 0.703545 0.688647
          0.690416 0.698903 0.699805 0.702207 0.695026 0.69977
          0.698669 0.700236 0.706312 0.725114 0.710414 0.694522
          0.713482 0.708781 0.715118 0.71192 0.717412 0.714615
          0.642128 0.692447 0.686317 0.686913 0.686508 0.690613
          0.685055 0.706568 0.699467 0.699829 0.700832 0.689941
          0.695986 0.701531 0.701983 0.693641 0.710701 0.693357
          0.696667 0.702836 0.68882 0.688805 0.689429 0.682054
          0.707122 0.686868 0.689837 0.691246 0.697706 0.696665
          0.6957 0.701891 0.703052 0.664383 0.698194 0.69983
          0.691683 0.706022 0.701128 0.685556 0.684527 0.710163
          0.705852 0.698123 0.700435 0.695502 0.690691 0.700509
          0.702475 0.705456 0.701178 0.696549 0.687601 0.699823
          0.677239 0.681388 0.692428 0.685758 0.694752 0.678562
          0.703367 0.687661 0.686765 0.690485 0.678853 0.687205
          0.663422 0.696323 0.704696 0.690442 0.703409 0.688065
          0.706469 0.689557 0.690062 0.69869 0.698584 0.698409
          0.704188 0.692112 0.695768 0.708903 0.704089 0.715418
          0.702443 0.702189 0.688806 0.678016 0.687531 0.685103
          0.696725 0.687024 0.68919 0.698696 0.696776 0.697695
          0.695989 0.704338 0.690397 0.661288 0.705594 0.691095
          0.701265 0.699311 0.707305 0.712675 0.690132 0.705893
          0.698604 0.684361 0.716983 0.689717 0.699259 0.712313
          0.689857 0.706882 0.692351 0.712832 0.699146 0.710969
          0.711622 0.717728 0.6999 0.715056 0.7084 0.691936
          0.718969 0.709261 0.723883 0.703436 0.704478 0.707774
          0.680371 0.68748 0.703018 0.707393 0.697395 0.699871
          0.69772 0.704985 0.706999 0.701341 0.695809 0.700941
          0.70764 0.694039 0.679138 0.722666 0.697865 0.701301
          0.69849 0.699492 0.714125 0.693375 0.7164 0.698289
          0.70812 0.710437 0.709135 0.702198 0.708234 0.727599
          0.721589 0.727012 0.707558 0.667066 0.708354 0.695621
          0.693258 0.69438 0.698519 0.708607 0.69218 0.707205
          0.696583 0.708655 0.700015 0.717871 0.70035 0.703575
          0.706541 0.694248 0.70206 0.683425 0.70799 0.713885
          0.720119 0.704765 0.712277 0.711643 0.711502 0.716038
          0.717895 0.706878 0.70728 0.715414 0.711897 0.699166
          0.657624 0.699999 0.687193 0.709668 0.699523 0.704775
          0.695357 0.703485 0.70525 0.70089 0.696375 0.678819
          0.702224 0.686915 0.695716 0.705332 0.693983 0.705397
          0.697122 0.702991 0.685296 0.675967 0.702513 0.671206
          0.697756 0.697792 0.694966 0.690854 0.691869 0.697012
          0.685931 0.689679 0.684879 0.650736 0.697323 0.701719
          0.696221 0.708171 0.697219 0.705591 0.693234 0.71231
          0.695137 0.712899 0.695494 0.703052 0.700153 0.700374
          0.696887 0.70452 0.701051 0.714197 0.700848 0.692484
          0.691335 0.685629 0.684551 0.688783 0.700224 0.693753
          0.701834 0.700592 0.692879 0.682855 0.697297 0.695091
          0.665708 0.695222 0.700759 0.710401 0.711991 0.696395
          0.692906 0.694971 0.699771 0.710808 0.691747 0.700005
          0.688138 0.708588 0.689765 0.709753 0.711076 0.685131
          0.694374 0.703431 0.698912 0.687024 0.692316 0.684212
          0.696254 0.68667 0.687547 0.683555 0.677236 0.692079
          0.682908 0.692736 0.685542 0.656295 0.690627 0.690131
          0.681739 0.692538 0.694218 0.694757 0.691359 0.711865
          0.699028 0.693507 0.698207 0.689087 0.697612 0.698925
          0.698078 0.706283 0.68878 0.693326 0.70718 0.691471
          0.688553 0.684253 0.68663 0.689638 0.679876 0.686457
          0.69405 0.687137 0.716344 0.701319 0.677089 0.703408
          0.658414 0.707415 0.691211 0.686304 0.705761 0.698765
          0.712509 0.704922 0.711075 0.703333 0.690489 0.695484
          0.702847 0.693086 0.694272 0.695645 0.696359 0.701494
          0.698887 0.707496 0.685378 0.688818 0.680548 0.698443
          0.687706 0.677498 0.6851 0.703695 0.698681 0.689172
          0.69824 0.683732 0.682966 0.668174 0.700824 0.699826
          0.701535 0.695515 0.700061 0.698747 0.696761 0.707176
          0.692664 0.698943 0.703363 0.697666 0.675845 0.708206
          0.704858 0.699466 0.71128 0.693792 0.70076 0.693738
          0.687914 0.687312 0.689612 0.6928 0.684756 0.709503
          0.703559 0.695283 0.696247 0.682024 0.679697 0.683311
          0.647771 0.690242 0.682966 0.693023 0.687083 0.683738
          0.68471 0.696524 0.682543 0.710095 0.703673 0.693519
          0.700346 0.703147 0.709629 0.693374 0.706529 0.696886
          0.708636 0.701061 0.716493 0.707165 0.70507 0.712449
          0.715112 0.712322 0.707543 0.717838 0.717029 0.699201
          0.697323 0.700968 0.719 0.646058 0.691028 0.688668
          0.68372 0.693927 0.698468 0.695608 0.687407 0.695583
          0.687548 0.686562 0.691109 0.697721 0.685749 0.696013
          0.692049 0.712595 0.697541 0.691426 0.696611 0.703664
          0.720484 0.710335 0.685557 0.699728 0.691487 0.713535
          0.712863 0.710968 0.719181 0.710733 0.71593 0.704369
          0.671398 0.703728 0.695158 0.704498 0.705334 0.705287
          0.697678 0.683087 0.712997 0.69888 0.697406 0.703121
          0.70106 0.695904 0.704586 0.699436 0.698377 0.706495
          0.695539 0.696654 0.703602 0.70569 0.708962 0.697959
          0.701533 0.706927 0.705855 0.706435 0.705152 0.713525
          0.718617 0.713575 0.704233 0.649049 0.686642 0.696943
          0.688226 0.684741 0.695983 0.690459 0.697296 0.68477
          0.713991 0.703137 0.692336 0.69677 0.696066 0.703067
          0.698929 0.699433 0.70259 0.681942 0.714243 0.695838
          0.689568 0.703539 0.700123 0.68605 0.702701 0.694658
          0.697541 0.693679 0.69286 0.682631 0.702413 0.700857
          0.658815 0.695009 0.69006 0.67719 0.68429 0.681153
          0.688168 0.688325 0.704533 0.688329 0.699473 0.696467
          0.703106 0.704139 0.692679 0.696878 0.68162 0.706428
          0.699416 0.709843 0.701271 0.688194 0.688333 0.68457
          0.693198 0.696231 0.694527 0.682456 0.705602 0.68099
          0.691344 0.687067 0.684796 0.632496 0.678085 0.697757
          0.703962 0.697731 0.684312 0.702255 0.702221 0.688652
          0.686636 0.703219 0.697141 0.711812 0.712728 0.708325
          0.699747 0.708325 0.697695 0.704232 0.69505 0.697979
          0.690484 0.698443 0.711709 0.708067 0.693637 0.705085
          0.687866 0.703391 0.696161 0.682459 0.688588 0.691481
          0.65059 0.693824 0.700375 0.703009 0.696307 0.699711
          0.702322 0.695224 0.702188 0.702975 0.706804 0.689751
          0.702019 0.704504 0.700557 0.692398 0.693956 0.695744
          0.710163 0.70707 0.678775 0.691233 0.680545 0.685656
          0.69851 0.681953 0.675634 0.69346 0.695976 0.693329
          0.688784 0.691276 0.68487 0.6263 0.677682 0.695316
          0.70589 0.682808 0.697883 0.690813 0.704392 0.704831
          0.69072 0.68319 0.712364 0.697944 0.699894 0.697682
          0.689094 0.695436 0.694214 0.702292 0.702798 0.700199
          0.707478 0.710212 0.712422 0.709312 0.711512 0.724725
          0.719511 0.71132 0.704269 0.71875 0.715353 0.721343
          0.670214 0.700231 0.699872 0.69927 0.689386 0.698536
          0.700004 0.697313 0.706684 0.696987 0.708793 0.698741
          0.688708 0.704473 0.689522 0.705081 0.702044 0.714822
          0.701921 0.708013 0.698411 0.701145 0.7034 0.71016
          0.702314 0.703527 0.690597 0.68559 0.689909 0.701664
          0.676944 0.702946 0.686147 0.668203 0.696174 0.70493
          0.692772 0.699787 0.695982 0.689532 0.700568 0.688109
          0.704782 0.699618 0.70545 0.698857 0.687683 0.71271
          0.697793 0.708041 0.696363 0.70265 0.712484 0.691183
          0.687389 0.683804 0.697331 0.684414 0.692036 0.689756
          0.68929 0.691734 0.711407 0.70766 0.690186 0.690364
          0.651497 0.710361 0.704832 0.711601 0.691763 0.693689
          0.702979 0.702295 0.703467 0.704938 0.704072 0.697849
          0.706719 0.711906 0.700581 0.709947 0.704104 0.700646
          0.696896 0.701251 0.691513 0.692086 0.69788 0.701687
          0.687521 0.711621 0.679986 0.694252 0.696079 0.68549
          0.684219 0.685228 0.695818 0.665733 0.710834 0.69887
          0.693391 0.695404 0.70701 0.701375 0.696127 0.710545
          0.702838 0.703712 0.707807 0.701429 0.684497 0.706502
          0.70594 0.715334 0.699101 0.689665 0.689313 0.713755
          0.710635 0.6972 0.716164 0.718144 0.707684 0.71482
          0.711266 0.709442 0.714078 0.705782 0.704163 0.71668
          0.657801 0.69327 0.690657 0.700546 0.701306 0.697735
          0.69238 0.697763 0.704678 0.726019 0.698282 0.704458
          0.688967 0.707393 0.692831 0.703407 0.713021 0.688924
          0.693941 0.685144 0.686425 0.687811 0.688792 0.684569
          0.707646 0.694537 0.685005 0.684166 0.690464 0.695893
          0.698911 0.692545 0.675941 0.664329 0.693682 0.691263
          0.693571 0.701944 0.698962 0.699708 0.694604 0.700374
          0.699562 0.700542 0.697424 0.711562 0.687159 0.708207
          0.701531 0.699501 0.704559 0.68662 0.696723 0.712468
          0.705954 0.70796 0.70625 0.714844 0.709532 0.695055
          0.711076 0.711464 0.700034 0.705197 0.702985 0.708755
          0.642512 0.680384 0.70906 0.693253 0.68925 0.697171
          0.698011 0.702991 0.702598 0.696617 0.688502 0.68407
          0.710919 0.7064 0.706887 0.69486 0.702427 0.69522
          0.6975 0.703063 0.70699 0.709996 0.712429 0.730107
          0.70769 0.711043 0.723827 0.719933 0.716215 0.701585
          0.709799 0.703978 0.701028 0.636848 0.678425 0.683661
          0.693228 0.69325 0.701468 0.692909 0.687267 0.694771
          0.718688 0.704198 0.686807 0.705347 0.690555 0.715999
          0.689026 0.706618 0.679801 0.70433 0.695153 0.712064
          0.71094 0.710422 0.697105 0.717309 0.718379 0.707178
          0.698097 0.717177 0.708313 0.710458 0.71183 0.722324
          0.65108 0.682943 0.686004 0.686698 0.683044 0.677949
          0.689988 0.695454 0.71169 0.699017 0.695332 0.700946
          0.699851 0.707648 0.693836 0.704638 0.705154 0.698291
          0.690794 0.704444 0.706123 0.722043 0.713567 0.699426
          0.704717 0.699446 0.704635 0.705908 0.714561 0.705896
          0.70873 0.709169 0.71685 0.678832 0.694748 0.687781
          0.706812 0.70384 0.692828 0.688433 0.702061 0.702326
          0.695017 0.695579 0.699346 0.702235 0.701981 0.69935
          0.701909 0.705238 0.708576 0.705224 0.702216 0.701736
          0.729797 0.71171 0.697714 0.712645 0.706972 0.716032
          0.70096 0.711229 0.719308 0.709766 0.702139 0.716613
          0.647238 0.681327 0.704523 0.694613 0.697597 0.70193
          0.676042 0.680168 0.688152 0.714279 0.716401 0.707211
          0.702807 0.687302 0.711625 0.692388 0.698195 0.701671
          0.698119 0.693867 0.703876 0.675682 0.697969 0.696808
          0.686632 0.695728 0.692849 0.679221 0.684235 0.689649
          0.701545 0.693956 0.692223 0.660199 0.696005 0.699179
          0.695545 0.695866 0.700926 0.715627 0.708536 0.700718
          0.684284 0.692111 0.693112 0.700837 0.714463 0.706449
          0.692561 0.69294 0.693689 0.693482 0.694265 0.708254
          0.691475 0.684916 0.690193 0.692245 0.700052 0.70667
          0.703414 0.702012 0.690704 0.6914 0.68041 0.69055
          0.654424 0.691767 0.692602 0.69433 0.692549 0.68512
          0.6962 0.703744 0.688299 0.687276 0.689227 0.681205
          0.70451 0.712488 0.705205 0.692936 0.697049 0.702754
          0.702991 0.695296 0.688412 0.693014 0.699085 0.695191
          0.69831 0.688548 0.696714 0.690805 0.708481 0.684438
          0.694577 0.698691 0.708443 0.638338 0.693378 0.68862
          0.709643 0.683411 0.693368 0.695382 0.69048 0.68423
          0.701312 0.709973 0.691883 0.707343 0.716384 0.71543
          0.686785 0.696835 0.712888 0.701244 0.692804 0.715489
          0.70683 0.704301 0.718331 0.714675 0.704946 0.709714
          0.715609 0.713757 0.69192 0.703952 0.713693 0.700527
          0.633927 0.682599 0.702429 0.696254 0.676793 0.676248
          0.686081 0.704758 0.691423 0.702562 0.701634 0.702733
          0.714596 0.70394 0.695618 0.701492 0.69918 0.693868
          0.701783 0.7032 0.699801 0.69219 0.698444 0.702704
          0.682535 0.684535 0.701675 0.691437 0.685263 0.699593
          0.698533 0.692424 0.705028 0.661898 0.694835 0.687509
          0.693755 0.684488 0.703921 0.679955 0.669653 0.711892
          0.701572 0.697626 0.700653 0.696455 0.695003 0.707736
          0.69674 0.696528 0.691233 0.69417 0.706469 0.695098
          0.683694 0.695612 0.676398 0.699263 0.701378 0.695032
          0.683375 0.689925 0.696252 0.700528 0.706109 0.687957
          0.669753 0.70558 0.706549 0.685807 0.708223 0.706202
          0.714938 0.695996 0.719366 0.700931 0.702727 0.700005
          0.702474 0.685334 0.707065 0.707008 0.703281 0.689255
          0.705823 0.69938 0.699677 0.703709 0.702037 0.713817
          0.716462 0.713508 0.701314 0.70214 0.714563 0.722991
          0.71179 0.717261 0.721092 0.671027 0.705585 0.700013
          0.694883 0.706504 0.68795 0.696165 0.693816 0.71747
          0.695569 0.698571 0.706193 0.689008 0.696529 0.687883
          0.718167 0.70156 0.686787 0.687772 0.694871 0.70484
          0.707036 0.694473 0.708523 0.684693 0.706001 0.718912
          0.709283 0.712789 0.716895 0.712711 0.718853 0.70462
          0.630804 0.686738 0.700038 0.690517 0.689452 0.694988
          0.68564 0.697316 0.689756 0.701982 0.689984 0.705776
          0.703358 0.704786 0.708586 0.702392 0.699961 0.706507
          0.695791 0.698849 0.699707 0.689619 0.689116 0.712081
          0.707689 0.702797 0.710308 0.698334 0.707659 0.68599
          0.703715 0.702184 0.700501 0.670938 0.703923 0.714693
          0.695881 0.698158 0.713578 0.705284 0.711699 0.688555
          0.708277 0.698335 0.690579 0.698297 0.687774 0.7078
          0.707018 0.684794 0.68741 0.702316 0.688397 0.707162
          0.70364 0.711657 0.706445 0.710299 0.698793 0.698146
          0.714464 0.70061 0.70422 0.711929 0.716407 0.711421
          0.650622 0.692486 0.686933 0.680717 0.681867 0.698051
          0.685952 0.705266 0.710197 0.697277 0.708361 0.698615
          0.697282 0.700776 0.690163 0.718784 0.69904 0.698147
          0.698508 0.69587 0.710126 0.687746 0.685541 0.687385
          0.683455 0.678853 0.691736 0.69224 0.688973 0.693728
          0.686624 0.689504 0.694641 0.654118 0.710458 0.694673
          0.697777 0.712782 0.68237 0.690327 0.703981 0.701115
          0.705129 0.704006 0.702786 0.708566 0.695619 0.687885
          0.704753 0.697392 0.702512 0.70676 0.694978 0.689395
          0.694334 0.692487 0.692154 0.695207 0.696078 0.694975
          0.686716 0.691883 0.686828 0.683486 0.691368 0.688758
          0.667013 0.699 0.699815 0.699898 0.705619 0.689139
          0.686947 0.701033 0.704022 0.705859 0.698673 0.701628
          0.698582 0.695641 0.696595 0.694787 0.692677 0.70194
          0.705359 0.702738 0.695281 0.699271 0.688107 0.695386
          0.694405 0.693281 0.695272 0.678285 0.683977 0.677228
          0.684195 0.699568 0.687794 0.6854 0.705534 0.697352
          0.695385 0.710266 0.676787 0.697314 0.709539 0.697507
          0.700665 0.702247 0.695732 0.704432 0.694823 0.703552
          0.703183 0.704575 0.688533 0.706955 0.698441 0.686113
          0.685601 0.677282 0.689813 0.698822 0.694036 0.692166
          0.687329 0.702756 0.701737 0.698049 0.676508 0.686559
          0.646468 0.685587 0.702519 0.691327 0.681963 0.690065
          0.695828 0.688309 0.685064 0.684617 0.710877 0.690725
          0.705604 0.685519 0.692395 0.694575 0.704855 0.702958
          0.709815 0.693162 0.708964 0.708635 0.716128 0.707093
          0.705486 0.721824 0.71405 0.732515 0.70899 0.704473
          0.720609 0.71767 0.71154 0.647596 0.681883 0.686014
          0.684383 0.667109 0.690124 0.704939 0.706573 0.691397
          0.696896 0.709359 0.686036 0.704127 0.714611 0.688602
          0.708256 0.693604 0.708006 0.697208 0.706087 0.689816
          0.678418 0.681122 0.694945 0.691965 0.69779 0.693319
          0.698302 0.691174 0.684674 0.699296 0.698662 0.695866
          0.656606 0.681675 0.684451 0.701566 0.690556 0.686383
          0.67894 0.684678 0.696734 0.697622 0.701652 0.708258
          0.71573 0.689174 0.708676 0.700226 0.700622 0.705621
          0.692549 0.699695 0.717732 0.712802 0.699685 0.735241
          0.714801 0.6974 0.70639 0.696421 0.717631 0.727162
          0.718342 0.708529 0.704375 0.63337 0.696274 0.70541
          0.704623 0.703862 0.712128 0.717757 0.702739 0.681824
          0.711906 0.694331 0.709281 0.71508 0.704012 0.706608
          0.69163 0.708945 0.711925 0.711422 0.701402 0.706137
          0.704768 0.701559 0.704681 0.704279 0.694944 0.69067
          0.695007 0.690135 0.687421 0.668631 0.691485 0.690127
          0.658719 0.695543 0.697985 0.698704 0.697887 0.699542
          0.70842 0.702441 0.692871 0.697893 0.703169 0.69953
          0.707246 0.695274 0.717004 0.688915 0.697584 0.702855
          0.70005 0.697587 0.684832 0.707511 0.691116 0.688842
          0.688435 0.704868 0.681355 0.694865 0.690613 0.693782
          0.690753 0.700967 0.687923 0.651218 0.711025 0.695539
          0.690809 0.698284 0.701724 0.706509 0.702883 0.695065
          0.692907 0.706881 0.695279 0.706857 0.721224 0.687158
          0.703552 0.706818 0.693796 0.710198 0.717398 0.690083
          0.67973 0.704399 0.698061 0.700347 0.687375 0.696918
          0.687578 0.705994 0.69393 0.691821 0.695216 0.690183
          0.654979 0.700046 0.699538 0.692308 0.689827 0.692403
          0.685654 0.68901 0.690415 0.690045 0.689862 0.701342
          0.706356 0.700866 0.692709 0.706749 0.704601 0.688482
          0.704663 0.691388 0.696904 0.710216 0.707568 0.703667
          0.699766 0.709147 0.703484 0.719933 0.711936 0.709966
          0.692822 0.719362 0.711985 0.647991 0.676306 0.68294
          0.686456 0.695114 0.697826 0.691928 0.695087 0.702357
          0.709818 0.70828 0.689158 0.700291 0.685755 0.69101
          0.700859 0.698019 0.705634 0.698795 0.702148 0.692217
          0.688546 0.689617 0.68467 0.694277 0.701913 0.676617
          0.693056 0.697413 0.692856 0.699861 0.699911 0.684635
          0.673249 0.706778 0.688292 0.701881 0.696716 0.698125
          0.696862 0.692852 0.700123 0.714223 0.683836 0.714048
          0.701903 0.697398 0.70485 0.696631 0.704688 0.687253
          0.690076 0.690497 0.687189 0.681258 0.691021 0.692161
          0.6956 0.678006 0.706374 0.682908 0.685549 0.695498
          0.691497 0.703123 0.693165 0.647534 0.6985 0.694811
          0.71061 0.693955 0.694137 0.698855 0.702217 0.684588
          0.705567 0.702036 0.697433 0.705853 0.701408 0.71026
          0.688478 0.69135 0.702527 0.715374 0.704971 0.700732
          0.709995 0.706651 0.706131 0.701806 0.698989 0.704413
          0.705694 0.69321 0.702403 0.693368 0.693989 0.69638
          0.667078 0.701928 0.69591 0.691186 0.702037 0.688325
          0.707799 0.701807 0.700546 0.687165 0.698051 0.702529
          0.697805 0.718479 0.712745 0.683599 0.701508 0.699354
          0.680041 0.695891 0.710959 0.705779 0.710395 0.71519
          0.716432 0.702998 0.690554 0.716931 0.711762 0.700318
          0.711797 0.715626 0.719577 0.64078 0.681461 0.690394
          0.688283 0.691983 0.682817 0.68288 0.696935 0.70463
          0.691156 0.702553 0.688018 0.693794 0.702997 0.699755
          0.708207 0.693657 0.711827 0.688793 0.705126 0.719152
          0.716462 0.714603 0.71427 0.711706 0.696598 0.700623
          0.70241 0.707406 0.708879 0.712272 0.711605 0.715027
          0.642583 0.693894 0.684382 0.67684 0.689871 0.700416
          0.697323 0.685858 0.680587 0.690565 0.698086 0.701922
          0.693992 0.70302 0.704332 0.683892 0.691598 0.691769
          0.700308 0.701536 0.72073 0.71822 0.71827 0.718218
          0.712909 0.702559 0.725357 0.698197 0.69539 0.709016
          0.706648 0.713901 0.712199 0.671377 0.703091 0.685399
          0.696512 0.691159 0.699723 0.696232 0.701143 0.704356
          0.704336 0.695813 0.69503 0.698836 0.704575 0.693903
          0.693196 0.711362 0.700267 0.705251 0.698938 0.716201
          0.711539 0.705318 0.697276 0.71048 0.709067 0.719128
          0.701668 0.706485 0.700757 0.711989 0.724472 0.700774
          0.657151 0.692239 0.715775 0.702826 0.695799 0.692095
          0.702551 0.715697 0.710112 0.674289 0.699408 0.700816
          0.711119 0.688934 0.697776 0.698305 0.705924 0.692191
          0.70672 0.708307 0.700995 0.702756 0.700619 0.707867
          0.705207 0.710634 0.710661 0.719108 0.71035 0.701009
          0.695796 0.714755 0.694047 0.651166 0.688664 0.680396
          0.676681 0.690552 0.685291 0.685777 0.711004 0.697487
          0.703919 0.68189 0.69815 0.701814 0.68761 0.701772
          0.694521 0.69701 0.692797 0.703177 0.711511 0.704537
          0.697756 0.714337 0.693389 0.695716 0.708782 0.700094
          0.705943 0.686507 0.71073 0.703526 0.70027 0.722655
          0.666811 0.697646 0.717202 0.691577 0.69683 0.70146
          0.723505 0.701986 0.686931 0.695932 0.702882 0.694204
          0.707606 0.697014 0.697203 0.701229 0.692645 0.702538
          0.701896 0.695932 0.706321 0.706679 0.701426 0.711498
          0.703901 0.71114 0.717401 0.698836 0.708169 0.696324
          0.700084 0.711779 0.706792 0.651363 0.678948 0.688806
          0.692276 0.693804 0.701988 0.686766 0.694082 0.683308
          0.693564 0.695291 0.688357 0.704219 0.710089 0.690769
          0.702229 0.698598 0.696498 0.703616 0.689717 0.704704
          0.713199 0.702098 0.693133 0.714944 0.724728 0.713729
          0.715509 0.710072 0.710355 0.692498 0.705048 0.700272
          0.66959 0.712961 0.700887 0.692505 0.718316 0.70812
          0.704126 0.699828 0.696324 0.696941 0.72506 0.700962
          0.691307 0.687865 0.69997 0.694959 0.700689 0.704591
          0.702376 0.68208 0.696706 0.708015 0.714306 0.700779
          0.716423 0.707552 0.701938 0.711389 0.696371 0.709058
          0.718497 0.711635 0.71411 0.635036 0.69223 0.682986
          0.708389 0.690407 0.700571 0.698803 0.703862 0.702291
          0.691946 0.696962 0.690129 0.70039 0.688099 0.699507
          0.69608 0.692512 0.709125 0.69227 0.69221 0.69643
          0.696748 0.708096 0.706247 0.707052 0.691676 0.702831
          0.705237 0.705818 0.67293 0.690706 0.702162 0.700358
          0.661313 0.707697 0.693429 0.710073 0.69773 0.692908
          0.709107 0.705679 0.699724 0.707032 0.711227 0.682689
          0.71222 0.691209 0.70843 0.706459 0.705138 0.706964
          0.709873 0.701268 0.683661 0.709928 0.692078 0.697051
          0.695671 0.691504 0.691266 0.693588 0.684097 0.691077
          0.682967 0.694184 0.696917 0.681646 0.695543 0.694905
          0.710598 0.693011 0.701178 0.699955 0.700924 0.709208
          0.703098 0.688648 0.70767 0.683972 0.697159 0.697108
          0.696654 0.706655 0.694929 0.691163 0.70391 0.701715
          0.690773 0.698247 0.678709 0.689786 0.702716 0.687043
          0.682894 0.703542 0.702167 0.690146 0.703316 0.683886
          0.680369 0.705637 0.70292 0.688284 0.700783 0.702539
          0.706816 0.687449 0.703619 0.700924 0.698602 0.719185
          0.68455 0.692979 0.690108 0.715507 0.709926 0.697656
          0.698479 0.69984 0.689943 0.705744 0.696498 0.685864