<?xml version="1.0"?>
<VTKFile type="PolyData" version="0.1" byte_order="LittleEndian" header_type="UInt32" compressor="vtkZLibDataCompressor">
  <PolyData>
    <Piece NumberOfPoints="7920" NumberOfVerts="0" NumberOfLines="0" NumberOfStrips="0" NumberOfPolys="0">
      <PointData Scalars="Calcium Concentration">
        <DataArray type="Float32" Name="Calcium Concentration" format="ascii" RangeMin="0.5401210188865662" RangeMax="0.7351260185241699">
          0.561901 0.710973 0.700206 0.699235 0.699204 0.698546
          0.686679 0.720077 0.694407 0.679815 0.699442 0.700065
          0.693029 0.704413 0.695657 0.708856 0.691715 0.699556
          0.702779 0.701736 0.692171 0.67415 0.689153 0.692937
          0.684162 0.68552 0.697547 0.68702 0.689174 0.690105
          0.704839 0.687424 0.682411 0.568283 0.697194 0.698912
          0.702375 0.69608 0.695343 0.700836 0.710324 0.700936
          0.707918 0.689084 0.711198 0.693645 0.697292 0.707842
          0.685675 0.702445 0.694965 0.692472 0.709332 0.69421
          0.701998 0.680765 0.679717 0.688515 0.701675 0.703449
          0.687199 0.687843 0.697213 0.695138 0.68366 0.689705
          0.564263 0.688892 0.700436 0.687449 0.683181 0.687324
          0.696013 0.694837 0.702929 0.707225 0.703366 0.696692
          0.695353 0.701981 0.713153 0.700662 0.707863 0.711093
          0.713374 0.702153 0.715495 0.701647 0.708748 0.706667
          0.711631 0.709433 0.710248 0.704062 0.715377 0.706099
          0.711919 0.704761 0.710609 0.570065 0.691642 0.717574
          0.703839 0.7024 0.684924 0.711604 0.698449 0.701774
          0.700565 0.694402 0.698983 0.696489 0.698361 0.702431
          0.701129 0.703661 0.691282 0.704804 0.70296 0.703649
          0.685026 0.692119 0.699407 0.692962 0.711491 0.701621
          0.698787 0.696198 0.691018 0.699176 0.700228 0.70534
          0.554885 0.684041 0.689841 0.693475 0.688695 0.690348
          0.693028 0.698588 0.693558 0.704375 0.704404 0.698107
          0.70744 0.700519 0.700027 0.704195 0.70982 0.688456
          0.707009 0.697915 0.698744 0.693694 0.690253 0.683842
          0.694744 0.688713 0.678367 0.701794 0.697431 0.695627
          0.689964 0.695343 0.697291 0.575364 0.702857 0.702617
          0.699155 0.692328 0.702824 0.688209 0.70362 0.71369
          0.702104 0.691747 0.701892 0.696872 0.702462 0.702715
          0.70143 0.709357 0.693983 0.723454 0.691574 0.699271
          0.704223 0.705758 0.696854 0.705485 0.715895 0.709392
          0.69445 0.701604 0.717488 0.71151 0.705409 0.699375
          0.561694 0.685792 0.691257 0.690291 0.681362 0.691474
          0.685019 0.700518 0.714991 0.706399 0.688079 0.686054
          0.70656 0.713195 0.700714 0.699673 0.694612 0.699921
          0.700809 0.688354 0.70922 0.70353 0.697741 0.697784
          0.694229 0.712957 0.710196 0.719188 0.715234 0.696864
          0.717631 0.711237 0.714789 0.553441 0.683448 0.678188
          0.694289 0.688578 0.703648 0.678022 0.668826 0.706209
          0.699125 0.688851 0.717423 0.700161 0.705045 0.704397
          0.693351 0.699714 0.711017 0.707872 0.697219 0.689254
          0.6896 0.696703 0.685522 0.699086 0.692644 0.703788
          0.690072 0.690828 0.677771 0.699714 0.683784 0.685356
          0.553376 0.685837 0.68793 0.69561 0.688188 0.69209
          0.683502 0.705298 0.697609 0.708474 0.700887 0.705969
          0.703393 0.70047 0.697579 0.705072 0.711495 0.69518
          0.697519 0.690255 0.7049 0.697568 0.706057 0.703992
          0.71983 0.713484 0.699605 0.696926 0.71331 0.695235
          0.718757 0.707556 0.719451 0.572601 0.700341 0.7014
          0.701789 0.691342 0.693101 0.700411 0.703339 0.699038
          0.70436 0.715621 0.694172 0.692074 0.707553 0.694557
          0.69635 0.704766 0.696722 0.694065 0.692524 0.701545
          0.699136 0.704192 0.699321 0.716978 0.711682 0.712004
          0.701909 0.700369 0.70575 0.710506 0.698862 0.71069
          0.587659 0.705632 0.691507 0.706502 0.695588 0.703897
          0.709923 0.690358 0.698012 0.700708 0.701599 0.71103
          0.709476 0.697828 0.695096 0.710056 0.697935 0.711182
          0.692962 0.692164 0.708438 0.70764 0.72233 0.701201
          0.692181 0.71396 0.719215 0.696835 0.695738 0.705684
          0.713356 0.717082 0.71902 0.562685 0.687325 0.69025
          0.689503 0.676354 0.683907 0.693633 0.70688 0.692224
          0.702555 0.693063 0.697322 0.712522 0.706702 0.699813
          0.700281 0.702636 0.702699 0.704069 0.712349 0.692497
          0.689596 0.684989 0.685134 0.675853 0.686238 0.686684
          0.689071 0.685369 0.694009 0.690647 0.688227 0.692714
          0.582173 0.698162 0.692754 0.716708 0.686157 0.707903
          0.714351 0.696416 0.697272 0.689055 0.696984 0.69761
          0.709995 0.69836 0.693985 0.712125 0.704388 0.702318
          0.691878 0.711176 0.693627 0.697445 0.69236 0.68122
          0.692002 0.692886 0.685992 0.692559 0.697252 0.69075
          0.702316 0.695817 0.697366 0.567 0.69014 0.685744
          0.699335 0.711077 0.694563 0.702873 0.711036 0.692308
          0.700298 0.700444 0.704216 0.705648 0.697011 0.707578
          0.699248 0.693867 0.701878 0.713809 0.690662 0.68895
          0.698384 0.68218 0.686608 0.688548 0.693631 0.687322
          0.696956 0.704686 0.683016 0.685363 0.692907 0.69426
          0.555964 0.680709 0.689862 0.693969 0.694539 0.679632
          0.687191 0.694631 0.679987 0.698088 0.695615 0.691117
          0.699063 0.710562 0.70619 0.688617 0.70994 0.706963
          0.701634 0.691509 0.708652 0.705853 0.703618 0.705313
          0.715646 0.705697 0.724951 0.722804 0.717558 0.710363
          0.707239 0.716578 0.722501 0.555815 0.692543 0.690853
          0.704307 0.706012 0.704241 0.696817 0.696118 0.690722
          0.700202 0.688205 0.689982 0.707513 0.714144 0.701592
          0.699067 0.690826 0.70634 0.694473 0.695938 0.689707
          0.680959 0.691103 0.693257 0.688623 0.689545 0.691515
          0.693629 0.688287 0.682759 0.691614 0.679763 0.680424
          0.556775 0.683646 0.680445 0.685631 0.684558 0.698092
          0.696802 0.690298 0.686826 0.696253 0.698637 0.698581
          0.704928 0.698565 0.697931 0.700183 0.69797 0.71558
          0.694947 0.688307 0.681063 0.68133 0.691058 0.687395
          0.698912 0.691057 0.694093 0.696187 0.703372 0.711542
          0.700495 0.686786 0.694755 0.54984 0.698309 0.681091
          0.675695 0.693982 0.686707 0.684314 0.715209 0.701837
          0.689328 0.697564 0.70033 0.689194 0.716458 0.69426
          0.712767 0.690227 0.693615 0.710384 0.700661 0.702046
          0.718406 0.698769 0.70623 0.707259 0.70878 0.701171
          0.702722 0.708931 0.705414 0.718098 0.703935 0.715252
          0.550349 0.683943 0.685758 0.687489 0.688173 0.679439
          0.687203 0.70604 0.69068 0.697972 0.706708 0.712942
          0.709682 0.693207 0.706413 0.702778 0.695576 0.705698
          0.698863 0.699267 0.690454 0.691476 0.679942 0.693439
          0.692366 0.69072 0.695259 0.687177 0.694903 0.692873
          0.707995 0.70002 0.709473 0.568792 0.694162 0.698278
          0.693756 0.705691 0.68545 0.710595 0.702136 0.702759
          0.698026 0.698932 0.708066 0.701281 0.714013 0.698054
          0.704126 0.697324 0.694342 0.712259 0.694653 0.693725
          0.692796 0.695396 0.678884 0.688722 0.683848 0.693975
          0.692177 0.685587 0.689739 0.693658 0.689348 0.689728
          0.570343 0.711212 0.702706 0.712503 0.712542 0.687471
          0.697494 0.706694 0.711676 0.69705 0.710763 0.69551
          0.692586 0.706981 0.69862 0.701744 0.702125 0.694529
          0.704456 0.699986 0.68939 0.690015 0.673768 0.696365
          0.687832 0.69554 0.680022 0.694886 0.69429 0.699901
          0.693889 0.682771 0.68953 0.576582 0.691075 0.699578
          0.690182 0.703859 0.700627 0.72317 0.694253 0.70718
          0.703721 0.691191 0.703678 0.704524 0.699567 0.714457
          0.700543 0.706183 0.692789 0.699366 0.693025 0.715385
          0.705554 0.713546 0.709354 0.700422 0.707408 0.718137
          0.697775 0.717624 0.710295 0.712125 0.703211 0.696675
          0.572056 0.708149 0.696365 0.721402 0.692783 0.698438
          0.700906 0.702492 0.706002 0.708418 0.704359 0.703874
          0.693963 0.719915 0.692944 0.715338 0.7022 0.685786
          0.700913 0.690226 0.724291 0.694668 0.707899 0.692193
          0.702102 0.718184 0.703975 0.706179 0.716915 0.719599
          0.715337 0.705355 0.70967 0.58078 0.711871 0.697091
          0.698856 0.711398 0.694881 0.699592 0.7109 0.703632
          0.699058 0.695944 0.698497 0.704697 0.713319 0.70612
          0.702995 0.691164 0.707868 0.690639 0.685825 0.702683
          0.708919 0.720427 0.705798 0.705421 0.721931 0.706921
          0.729336 0.72472 0.715968 0.720527 0.702346 0.698486
          0.56582 0.687843 0.69423 0.705191 0.711392 0.696208
          0.691582 0.694651 0.704833 0.710938 0.696395 0.696419
          0.703309 0.705928 0.714546 0.686478 0.703073 0.699711
          0.704651 0.713406 0.687064 0.685997 0.689194 0.694957
          0.69488 0.705902 0.697788 0.689626 0.695396 0.698126
          0.687001 0.683069 0.688043 0.574638 0.691845 0.703299
          0.688943 0.689301 0.687986 0.708519 0.697036 0.701663
          0.701839 0.704643 0.697974 0.69699 0.696737 0.710403
          0.696382 0.69499 0.696484 0.708894 0.698522 0.697336
          0.685093 0.687347 0.685286 0.686367 0.696698 0.685686
          0.69606 0.700021 0.700867 0.686323 0.693516 0.69442
          0.565155 0.70836 0.701335 0.702935 0.697883 0.693706
          0.70212 0.707775 0.705807 0.704944 0.693858 0.709942
          0.695144 0.718435 0.681466 0.709005 0.692398 0.700698
          0.707837 0.704131 0.690142 0.692902 0.682306 0.674587
          0.696906 0.686168 0.683986 0.68097 0.687589 0.689095
          0.695635 0.680135 0.689781 0.55616 0.696522 0.687008
          0.690218 0.709211 0.700171 0.697835 0.700321 0.690437
          0.693225 0.7066 0.695476 0.697566 0.712679 0.709157
          0.705663 0.701671 0.684309 0.718052 0.69592 0.676326
          0.691651 0.691295 0.685993 0.698664 0.686994 0.688378
          0.681713 0.692051 0.702157 0.703402 0.688825 0.689331
          0.563023 0.701996 0.704567 0.713739 0.698003 0.695479
          0.699984 0.70654 0.694804 0.712268 0.701207 0.698454
          0.709455 0.688671 0.714855 0.71135 0.694821 0.71653
          0.698195 0.693321 0.696557 0.68701 0.687685 0.696357
          0.69001 0.676504 0.684525 0.697751 0.702677 0.689546
          0.691767 0.693595 0.698796 0.564824 0.705557 0.702384
          0.694012 0.706694 0.691468 0.707004 0.694793 0.707484
          0.700216 0.705569 0.703408 0.687577 0.715285 0.697007
          0.700601 0.702402 0.697451 0.710597 0.683414 0.694322
          0.691415 0.677954 0.705612 0.690563 0.690381 0.683527
          0.688794 0.697034 0.712116 0.694132 0.691316 0.688534
          0.554214 0.687771 0.698934 0.701288 0.688546 0.68042
          0.692416 0.701193 0.686516 0.709994 0.695026 0.704138
          0.698659 0.704293 0.692193 0.707893 0.698414 0.696223
          0.703356 0.691581 0.714598 0.707085 0.712656 0.710013
          0.724604 0.712526 0.709704 0.698527 0.704364 0.706816
          0.700503 0.714959 0.704112 0.54629 0.687233 0.688204
          0.688581 0.69214 0.691103 0.705186 0.69596 0.680959
          0.682933 0.708543 0.712981 0.706737 0.704861 0.692087
          0.704497 0.694573 0.69284 0.705239 0.69379 0.711352
          0.712833 0.696271 0.687918 0.706085 0.704675 0.701119
          0.70869 0.696753 0.703969 0.717261 0.723824 0.706231
          0.573341 0.715258 0.688264 0.6941 0.699149 0.701664
          0.705217 0.685904 0.70699 0.709335 0.715748 0.682616
          0.696269 0.710733 0.699658 0.695248 0.694738 0.694189
          0.704555 0.686178 0.703525 0.711087 0.70745 0.698186
          0.699954 0.719515 0.704941 0.705612 0.712126 0.711012
          0.71589 0.709275 0.705399 0.553063 0.680792 0.679399
          0.698326 0.677157 0.692504 0.692853 0.699037 0.684037
          0.709248 0.700543 0.691382 0.701044 0.706855 0.693396
          0.688109 0.685704 0.709252 0.696228 0.706277 0.693405
          0.698726 0.689402 0.698614 0.699756 0.691452 0.691241
          0.700787 0.689032 0.686002 0.696181 0.693178 0.694163
          0.558759 0.698828 0.704967 0.67961 0.685189 0.685073
          0.702298 0.684924 0.694868 0.691062 0.69887 0.702198
          0.702136 0.700142 0.704566 0.689003 0.698676 0.699356
          0.700665 0.706414 0.693006 0.702534 0.685875 0.69825
          0.687584 0.684988 0.701441 0.692955 0.685619 0.693607
          0.695915 0.695777 0.691149 0.547446 0.673745 0.702849
          0.701743 0.685427 0.685544 0.694204 0.704928 0.692877
          0.69692 0.690709 0.696875 0.698171 0.68784 0.692954
          0.691729 0.704125 0.705421 0.695617 0.700288 0.702576
          0.704366 0.691967 0.715302 0.703046 0.7038 0.695601
          0.689779 0.69419 0.69747 0.696724 0.686707 0.699762
          0.551037 0.681243 0.705713 0.692849 0.707252 0.693642
          0.703637 0.703614 0.688648 0.702068 0.700103 0.698711
          0.710428 0.712155 0.697871 0.698053 0.710093 0.699855
          0.704112 0.701956 0.696131 0.684453 0.699822 0.67369
          0.702174 0.693388 0.680536 0.690022 0.702211 0.701163
          0.678829 0.684756 0.687625 0.550422 0.668028 0.698513
          0.687444 0.677072 0.689262 0.690065 0.693279 0.685523
          0.700597 0.691977 0.713321 0.710393 0.70096 0.693686
          0.70429 0.708672 0.715466 0.694494 0.690553 0.707234
          0.700353 0.726 0.702562 0.70861 0.707443 0.728469
          0.727586 0.702172 0.688862 0.699328 0.705614 0.722333
          0.58372 0.705732 0.710733 0.707696 0.68694 0.708678
          0.705185 0.697818 0.708703 0.7017 0.69241 0.703545
          0.701464 0.709802 0.696935 0.699935 0.703398 0.698589
          0.707561 0.710588 0.707335 0.703162 0.697083 0.706313
          0.70726 0.688188 0.708544 0.692576 0.700531 0.699486
          0.699542 0.70825 0.681066 0.567379 0.700931 0.696241
          0.720645 0.697377 0.700685 0.697484 0.697937 0.706896
          0.693309 0.701606 0.699349 0.708117 0.693206 0.716315
          0.705824 0.690249 0.694144 0.706792 0.706233 0.691195
          0.707436 0.694908 0.696302 0.685611 0.69749 0.683014
          0.677239 0.699589 0.69034 0.710322 0.693435 0.697912
          0.547599 0.698366 0.686677 0.698111 0.706375 0.691676
          0.6963 0.68735 0.699196 0.696275 0.691908 0.693142
          0.712951 0.68911 0.700732 0.705795 0.703755 0.693402
          0.699369 0.713422 0.695991 0.705846 0.693831 0.697652
          0.68619 0.688214 0.686165 0.693918 0.690357 0.697622
          0.682021 0.691874 0.696843 0.570986 0.712187 0.702601
          0.705146 0.690213 0.710452 0.695051 0.703227 0.700523
          0.703485 0.706599 0.681533 0.705972 0.707233 0.685602
          0.689834 0.70289 0.689212 0.694804 0.710259 0.711126
          0.71044 0.7025 0.719478 0.705441 0.716269 0.703841
          0.710775 0.710459 0.714569 0.701702 0.706686 0.707249
          0.569348 0.704788 0.699233 0.699944 0.701754 0.693664
          0.710915 0.700284 0.701569 0.692176 0.7099 0.695936
          0.690711 0.716146 0.704266 0.68654 0.703598 0.704648
          0.709319 0.696302 0.68809 0.692353 0.692916 0.686542
          0.70013 0.698182 0.697569 0.685279 0.683962 0.707685
          0.695196 0.701619 0.678084 0.568011 0.699783 0.703449
          0.705679 0.701808 0.700272 0.695519 0.698867 0.704249
          0.705491 0.708261 0.697956 0.692672 0.710875 0.705566
          0.702074 0.695521 0.688496 0.706105 0.703404 0.72166
          0.709344 0.709292 0.700883 0.712187 0.722617 0.709409
          0.718302 0.703861 0.705476 0.706771 0.69664 0.717915
          0.551337 0.665112 0.709012 0.694098 0.689233 0.685055
          0.687118 0.693216 0.697251 0.702912 0.688775 0.68798
          0.699348 0.699093 0.708123 0.693663 0.700181 0.695535
          0.697567 0.696753 0.717019 0.699972 0.712623 0.720575
          0.714515 0.715681 0.71564 0.718318 0.717701 0.704257
          0.711938 0.720902 0.732154 0.553882 0.690719 0.684739
          0.688033 0.684375 0.69333 0.688251 0.707452 0.690097
          0.704303 0.702761 0.693402 0.711161 0.693595 0.70648
          0.699962 0.709974 0.695567 0.689348 0.706768 0.703293
          0.716856 0.704312 0.695057 0.707036 0.72141 0.710199
          0.706606 0.709018 0.709717 0.710703 0.713575 0.699325
          0.550811 0.688061 0.675485 0.685464 0.690359 0.684277
          0.692832 0.685051 0.690023 0.707215 0.694952 0.703098
          0.697235 0.709284 0.704681 0.698433 0.693342 0.693163
          0.703737 0.696724 0.706654 0.717755 0.720096 0.70976
          0.691445 0.699459 0.702181 0.704414 0.720733 0.717374
          0.70741 0.711107 0.713106 0.576597 0.710362 0.699207
          0.713263 0.707146 0.697622 0.693133 0.702648 0.699378
          0.691649 0.713034 0.699606 0.704214 0.715547 0.703117
          0.709723 0.68177 0.691014 0.684803 0.695084 0.708822
          0.708531 0.711485 0.696438 0.700163 0.706641 0.710335
          0.710104 0.71226 0.704402 0.708151 0.708489 0.71126
          0.55004 0.679389 0.711145 0.693933 0.688942 0.686956
          0.688489 0.677242 0.688414 0.698172 0.700746 0.687215
          0.703082 0.698395 0.70851 0.694461 0.692395 0.704455
          0.697409 0.707667 0.702047 0.689147 0.68102 0.691888
          0.706425 0.706127 0.68155 0.68921 0.689765 0.702278
          0.700175 0.697748 0.685122 0.583974 0.694211 0.697721
          0.717124 0.685481 0.700482 0.710843 0.701529 0.689129
          0.71255 0.717358 0.700283 0.703284 0.691696 0.718001
          0.693053 0.701234 0.699397 0.697227 0.693662 0.692123
          0.686157 0.689276 0.688722 0.696532 0.692662 0.712402
          0.710773 0.699788 0.695801 0.696897 0.700476 0.700133
          0.560038 0.677607 0.684741 0.704161 0.68361 0.690754
          0.693968 0.707302 0.696255 0.698594 0.683111 0.68518
          0.699238 0.712185 0.713764 0.695902 0.700996 0.702281
          0.692653 0.708052 0.693281 0.690082 0.701088 0.699329
          0.692632 0.690247 0.686676 0.694716 0.696132 0.692771
          0.680337 0.706927 0.706435 0.55156 0.689263 0.702084
          0.68509 0.691294 0.683175 0.672423 0.690401 0.694976
          0.704907 0.700265 0.689206 0.706079 0.685601 0.700356
          0.699543 0.691994 0.695507 0.685995 0.705958 0.714419
          0.713194 0.705244 0.725912 0.727484 0.708128 0.712647
          0.715974 0.706457 0.694809 0.701434 0.714203 0.713882
          0.55072 0.676792 0.69534 0.687352 0.687691 0.67655
          0.676944 0.700818 0.685842 0.702486 0.701755 0.689423
          0.697684 0.677911 0.695726 0.705773 0.710449 0.704227
          0.694906 0.712625 0.709059 0.704584 0.694174 0.699563
          0.691741 0.694807 0.680995 0.701796 0.695341 0.689745
          0.700947 0.691394 0.704495 0.544492 0.68617 0.678976
          0.68508 0.68968 0.690509 0.698318 0.68311 0.693605
          0.69857 0.708292 0.711268 0.688369 0.716631 0.697707
          0.704161 0.703352 0.693569 0.695566 0.698814 0.708812
          0.685129 0.703837 0.678743 0.687908 0.695666 0.687498
          0.695388 0.69058 0.683241 0.691381 0.689358 0.685949
          0.566217 0.708076 0.679024 0.704153 0.711921 0.710003
          0.7004 0.691189 0.702858 0.698894 0.698276 0.698444
          0.697963 0.707797 0.696 0.715188 0.695608 0.693467
          0.714789 0.68591 0.69682 0.713294 0.697166 0.701998
          0.714227 0.723579 0.703463 0.698614 0.708254 0.703622
          0.716945 0.717548 0.72188 0.575706 0.700801 0.686953
          0.705561 0.695583 0.709104 0.699938 0.699937 0.707607
          0.693584 0.705572 0.702439 0.695774 0.714313 0.686011
          0.70257 0.71456 0.689587 0.705414 0.695942 0.716276
          0.687015 0.695281 0.704388 0.724119 0.71007 0.695499
          0.708833 0.72171 0.702223 0.720391 0.71186 0.712487
          0.558716 0.676962 0.701157 0.687319 0.689769 0.686457
          0.686629 0.69299 0.688533 0.709233 0.694385 0.699066
          0.701656 0.683711 0.707935 0.699457 0.714917 0.703989
          0.693702 0.701279 0.70801 0.703849 0.686975 0.700064
          0.694995 0.690633 0.709925 0.701138 0.705011 0.703756
          0.694191 0.703343 0.7057 0.571729 0.697402 0.680846
          0.69107 0.702425 0.701642 0.691723 0.706435 0.694604
          0.704752 0.68808 0.714079 0.696907 0.706107 0.703667
          0.702819 0.698955 0.706582 0.697315 0.691622 0.701247
          0.710013 0.700817 0.702531 0.707609 0.708007 0.705832
          0.712203 0.711307 0.701343 0.711684 0.708973 0.711323
          0.559837 0.689169 0.695889 0.688465 0.681058 0.690949
          0.690109 0.717707 0.685455 0.695159 0.699373 0.690613
          0.694206 0.690537 0.697221 0.707496 0.692213 0.700453
          0.691392 0.7008 0.692384 0.688469 0.687757 0.683188
          0.69723 0.676727 0.685112 0.696303 0.684729 0.693899
          0.684653 0.687945 0.690538 0.552008 0.696798 0.6913
          0.685973 0.718776 0.696385 0.706873 0.700709 0.704896
          0.701155 0.700506 0.710165 0.701425 0.698184 0.703171
          0.700289 0.693811 0.704646 0.69794 0.701972 0.682791
          0.693504 0.685892 0.678004 0.693267 0.700251 0.697173
          0.687914 0.699302 0.687676 0.69256 0.691017 0.695304
          0.579622 0.699463 0.703303 0.695203 0.714558 0.699653
          0.710196 0.707223 0.690655 0.70076 0.699554 0.702902
          0.683658 0.696108 0.717622 0.70105 0.704552 0.696203
          0.700431 0.700276 0.713144 0.698567 0.677501 0.691058
          0.69248 0.704518 0.682356 0.683133 0.699838 0.679446
          0.689472 0.705462 0.682521 0.581932 0.710434 0.693875
          0.692912 0.703831 0.685194 0.700317 0.7115 0.701835
          0.695423 0.696165 0.699661 0.702261 0.701472 0.697183
          0.690571 0.699759 0.688109 0.703787 0.699282 0.687422
          0.68088 0.67999 0.696316 0.688501 0.708109 0.687696
          0.699883 0.702557 0.694653 0.705233 0.679498 0.686733
          0.550494 0.673224 0.702729 0.691134 0.696163 0.681413
          0.684848 0.692145 0.686124 0.699311 0.695477 0.686588
          0.727904 0.70431 0.699347 0.699466 0.703371 0.696353
          0.697459 0.696924 0.702427 0.714608 0.717543 0.712899
          0.712562 0.707139 0.69733 0.718967 0.707021 0.709861
          0.707823 0.723806 0.709247 0.544568 0.674923 0.689839
          0.683175 0.683477 0.678323 0.695288 0.713959 0.693302
          0.719239 0.695836 0.691627 0.698862 0.704659 0.700347
          0.700858 0.692886 0.712837 0.685935 0.704315 0.683227
          0.692202 0.688723 0.685109 0.701683 0.689792 0.696674
          0.68847 0.684008 0.691463 0.692449 0.69014 0.680445
          0.552299 0.688226 0.6987 0.693201 0.698199 0.681225
          0.679555 0.697982 0.688648 0.695593 0.696077 0.702019
          0.690426 0.696304 0.700871 0.702932 0.704641 0.693043
          0.70224 0.691181 0.711929 0.728672 0.708703 0.710829
          0.717182 0.714302 0.715958 0.706015 0.714517 0.719227
          0.71484 0.710216 0.700463 0.5547 0.691988 0.708039
          0.696026 0.70341 0.693585 0.685479 0.695268 0.68894
          0.711604 0.685611 0.69391 0.700836 0.688829 0.693349
          0.696791 0.710354 0.713209 0.690467 0.69728 0.689296
          0.698011 0.708214 0.707116 0.696823 0.692443 0.685469
          0.696198 0.688293 0.686084 0.677255 0.698315 0.681861
          0.576516 0.696203 0.707183 0.691539 0.702596 0.692813
          0.707131 0.689942 0.694294 0.702197 0.696451 0.695576
          0.697208 0.697264 0.70424 0.705651 0.691775 0.712035
          0.698576 0.693677 0.693699 0.69563 0.70426 0.69816
          0.697564 0.703927 0.695679 0.695945 0.687513 0.700765
          0.70719 0.686565 0.701308 0.569117 0.685659 0.694898
          0.695595 0.707584 0.709519 0.692851 0.704369 0.690863
          0.707454 0.691065 0.693045 0.713176 0.695643 0.697459
          0.686973 0.69235 0.693299 0.699569 0.698934 0.702195
          0.681316 0.700502 0.690246 0.701418 0.704471 0.707376
          0.696262 0.704026 0.699196 0.688946 0.691703 0.699996
          0.576454 0.69374 0.692205 0.698776 0.681173 0.701716
          0.691119 0.698277 0.694744 0.674991 0.679753 0.69427
          0.709901 0.710413 0.692482 0.685632 0.713148 0.712614
          0.700853 0.688674 0.693092 0.698523 0.702272 0.694399
          0.712912 0.704024 0.679864 0.715651 0.718853 0.703901
          0.695721 0.696057 0.710604 0.561168 0.693008 0.681576
          0.690113 0.687921 0.686646 0.692877 0.691332 0.70843
          0.683448 0.69563 0.691481 0.694005 0.712067 0.701514
          0.706622 0.690484 0.701187 0.706934 0.708109 0.68907
          0.698317 0.699031 0.676685 0.686327 0.702749 0.697322
          0.687874 0.695445 0.687686 0.693937 0.688379 0.682817
          0.569884 0.716541 0.702478 0.698597 0.705571 0.70625
          0.696986 0.7026 0.6949 0.706573 0.702623 0.697474
          0.698575 0.70693 0.696035 0.697188 0.691614 0.702007
          0.702126 0.714653 0.6792 0.675521 0.690341 0.682851
          0.6928 0.697499 0.686004 0.694258 0.680158 0.692556
          0.692079 0.704989 0.686379 0.575126 0.691819 0.696771
          0.710505 0.685644 0.698423 0.698216 0.70307 0.690738
          0.705589 0.70436 0.701753 0.708468 0.6935 0.706394
          0.707113 0.700791 0.686944 0.695224 0.702459 0.695379
          0.707456 0.696711 0.698155 0.704412 0.686219 0.701101
          0.70255 0.704534 0.69862 0.689945 0.703642 0.700891
          0.580358 0.698286 0.718485 0.696184 0.692541 0.703358
          0.696286 0.691161 0.691563 0.705178 0.696296 0.707994
          0.695706 0.694417 0.705214 0.688164 0.712671 0.705217
          0.683342 0.691284 0.70162 0.706875 0.710527 0.716057
          0.723777 0.712796 0.714438 0.703983 0.723599 0.698407
          0.705842 0.718476 0.699306 0.548665 0.674434 0.694876
          0.689622 0.681007 0.683155 0.693701 0.689965 0.70183
          0.693285 0.698649 0.696374 0.717469 0.6955 0.695425
          0.691539 0.702748 0.700516 0.697006 0.699888 0.710839
          0.714039 0.71683 0.721345 0.710509 0.703008 0.708312
          0.715815 0.696248 0.70949 0.719875 0.715279 0.715839
          0.560717 0.683077 0.695957 0.677026 0.689585 0.692217
          0.694326 0.69546 0.693429 0.682624 0.688862 0.697473
          0.702813 0.69617 0.705061 0.70207 0.704909 0.699528
          0.707297 0.688372 0.708685 0.721901 0.709927 0.713964
          0.713081 0.711547 0.709547 0.706507 0.7164 0.71963
          0.711002 0.712866 0.719309 0.572651 0.708723 0.709313
          0.694118 0.698452 0.707651 0.710265 0.703446 0.692187
          0.69599 0.712039 0.692954 0.705166 0.699103 0.695726
          0.690349 0.696169 0.708284 0.715159 0.699359 0.704635
          0.701802 0.702044 0.706742 0.710623 0.717769 0.711336
          0.710028 0.695271 0.709206 0.704411 0.720876 0.710794
          0.573472 0.676181 0.705429 0.689648 0.700668 0.684734
          0.709333 0.699723 0.718402 0.680599 0.689333 0.711132
          0.712155 0.69624 0.710527 0.710355 0.70656 0.704815
          0.700217 0.68314 0.701847 0.713524 0.716361 0.709103
          0.715965 0.705694 0.722552 0.727381 0.708011 0.702288
          0.696022 0.701328 0.693702 0.569804 0.689097 0.684528
          0.684463 0.702112 0.679868 0.685433 0.703752 0.697353
          0.708914 0.690052 0.707207 0.695118 0.70578 0.699141
          0.701715 0.683075 0.713683 0.697147 0.709223 0.716023
          0.7137 0.712369 0.705956 0.705647 0.716904 0.697639
          0.692749 0.704693 0.711053 0.727578 0.706109 0.70856
          0.575827 0.695641 0.69803 0.688897 0.699908 0.703977
          0.699521 0.702728 0.688963 0.696519 0.698347 0.692215
          0.702241 0.704432 0.694245 0.703753 0.703498 0.704339
          0.687808 0.698546 0.722759 0.726318 0.705491 0.695546
          0.712345 0.691041 0.70746 0.716064 0.698522 0.705843
          0.703837 0.707353 0.715486 0.559869 0.677435 0.689572
          0.694788 0.6786 0.696415 0.689267 0.689498 0.701812
          0.71159 0.703287 0.70508 0.700005 0.700929 0.687349
          0.693277 0.708241 0.696193 0.717514 0.68765 0.720378
          0.707928 0.696261 0.699611 0.717401 0.721934 0.70536
          0.713761 0.711192 0.71019 0.694802 0.710085 0.707012
          0.569614 0.719489 0.690654 0.703027 0.69522 0.690889
          0.702035 0.692607 0.675431 0.701029 0.706496 0.710857
          0.687904 0.716826 0.693814 0.720774 0.700817 0.694834
          0.697332 0.694589 0.708363 0.701055 0.718308 0.704216
          0.721786 0.712276 0.704715 0.701089 0.70203 0.699278
          0.719371 0.711813 0.716154 0.564729 0.682941 0.706624
          0.703567 0.686741 0.69126 0.693295 0.695444 0.703339
          0.694107 0.696466 0.68868 0.704789 0.683922 0.709025
          0.700409 0.707 0.703645 0.689532 0.700263 0.694337
          0.699469 0.699181 0.709076 0.699569 0.699171 0.712721
          0.706183 0.699059 0.705583 0.696433 0.697747 0.700159
          0.57861 0.686461 0.692055 0.696418 0.689439 0.696697
          0.70269 0.699737 0.689538 0.699025 0.694847 0.698909
          0.707798 0.696653 0.700202 0.694456 0.690615 0.708384
          0.698723 0.699697 0.695539 0.712443 0.70075 0.714278
          0.701475 0.682958 0.68705 0.687597 0.696878 0.685675
          0.69897 0.688628 0.692669 0.586936 0.705453 0.704746
          0.7034 0.700938 0.709865 0.704914 0.699425 0.694328
          0.687621 0.699095 0.710898 0.690627 0.705007 0.704408
          0.703485 0.699802 0.679506 0.712651 0.694804 0.694152
          0.70522 0.689939 0.693559 0.694373 0.709666 0.685319
          0.701341 0.696727 0.702842 0.68955 0.707128 0.696923
          0.562395 0.706226 0.700288 0.711211 0.705111 0.698287
          0.705743 0.704529 0.705615 0.692819 0.692187 0.707941
          0.696269 0.711638 0.681997 0.705998 0.708139 0.688513
          0.71251 0.709276 0.696615 0.688261 0.715302 0.687379