<?xml version="1.0"?>
<VTKFile type="PolyData" version="0.1" byte_order="LittleEndian" header_type="UInt32" compressor="vtkZLibDataCompressor">
  <PolyData>
    <Piece NumberOfPoints="7920" NumberOfVerts="0" NumberOfLines="0" NumberOfStrips="0" NumberOfPolys="0">
      <PointData Scalars="Calcium Concentration">
        <DataArray type="Float32" Name="Calcium Concentration" format="ascii" RangeMin="0.5764120221138" RangeMax="0.7416560053825378">
          0.608214 0.716214 0.710992 0.694127 0.703313 0.700942
          0.698248 0.724656 0.696831 0.682333 0.706734 0.698397
          0.696299 0.709621 0.696714 0.703752 0.693158 0.699636
          0.693353 0.720643 0.696857 0.682703 0.687769 0.695403
          0.689127 0.688501 0.705275 0.688742 0.689737 0.69445
          0.711454 0.694386 0.673663 0.623765 0.696344 0.698066
          0.70134 0.690615 0.69292 0.692572 0.704566 0.692173
          0.704312 0.690121 0.702565 0.694427 0.69541 0.71637
          0.68555 0.711489 0.692522 0.694266 0.704416 0.688589
          0.696954 0.677568 0.688442 0.677777 0.696044 0.686463
          0.685278 0.687545 0.692562 0.69769 0.681509 0.692264
          0.606777 0.691423 0.704571 0.689793 0.690625 0.684753
          0.69595 0.693954 0.707386 0.70287 0.704842 0.701321
          0.689642 0.703097 0.698497 0.704795 0.70861 0.712702
          0.708565 0.699723 0.719545 0.702635 0.713178 0.701802
          0.710892 0.709985 0.702471 0.705872 0.713649 0.701321
          0.710605 0.70446 0.715079 0.603795 0.701057 0.711037
          0.70545 0.698002 0.690661 0.703137 0.692381 0.708102
          0.700688 0.693208 0.698636 0.700727 0.699431 0.703981
          0.698657 0.696961 0.702756 0.703541 0.705587 0.694792
          0.693112 0.69483 0.694585 0.684157 0.713419 0.706961
          0.688942 0.704085 0.698601 0.700067 0.698431 0.705151
          0.59038 0.679346 0.688662 0.699542 0.689948 0.690467
          0.688651 0.702428 0.692194 0.694562 0.699838 0.694562
          0.699807 0.702484 0.702001 0.695462 0.70049 0.689106
          0.697117 0.703871 0.689949 0.696235 0.694678 0.680531
          0.696931 0.692308 0.683656 0.702215 0.687932 0.686214
          0.688138 0.692779 0.696689 0.607965 0.704374 0.703911
          0.703252 0.703177 0.700082 0.691054 0.704039 0.712
          0.71166 0.70357 0.708966 0.699087 0.701382 0.699879
          0.697789 0.706924 0.692107 0.71664 0.695576 0.703253
          0.708364 0.696825 0.693335 0.715841 0.703998 0.705242
          0.687661 0.69793 0.716501 0.720904 0.714952 0.702978
          0.601892 0.677717 0.685377 0.693963 0.69018 0.698329
          0.68584 0.698422 0.710168 0.706659 0.696667 0.691457
          0.697384 0.716246 0.695694 0.699648 0.697165 0.701428
          0.707154 0.691062 0.704896 0.709276 0.701887 0.704179
          0.696034 0.717221 0.708446 0.717615 0.723583 0.704852
          0.721163 0.706068 0.711653 0.594978 0.683007 0.674135
          0.694451 0.685479 0.695109 0.679274 0.669618 0.709437
          0.703443 0.688121 0.70249 0.704728 0.697633 0.703993
          0.691958 0.70301 0.701707 0.708185 0.704152 0.686241
          0.6835 0.682408 0.687657 0.698389 0.695931 0.693164
          0.682305 0.69258 0.672535 0.702386 0.684679 0.694675
          0.597974 0.691515 0.687768 0.692386 0.689442 0.692561
          0.688069 0.70397 0.695508 0.694422 0.700266 0.708309
          0.694304 0.692173 0.69433 0.703959 0.70743 0.685892
          0.696545 0.698151 0.706604 0.693705 0.707635 0.700143
          0.712417 0.711828 0.706856 0.700511 0.706023 0.70125
          0.711644 0.705351 0.715284 0.617834 0.699611 0.698376
          0.707114 0.701381 0.688597 0.70672 0.699613 0.695413
          0.697855 0.712508 0.692103 0.704445 0.699895 0.699209
          0.692326 0.7047 0.696062 0.690182 0.702197 0.702892
          0.694036 0.701524 0.70539 0.707157 0.710798 0.7099
          0.707683 0.698072 0.704597 0.71654 0.697941 0.705377
          0.621403 0.694583 0.694177 0.701291 0.69692 0.692792
          0.705271 0.69472 0.70361 0.694749 0.704127 0.708366
          0.702605 0.701953 0.699962 0.714857 0.695238 0.700171
          0.693708 0.699974 0.709516 0.705432 0.721287 0.693446
          0.694454 0.716176 0.707372 0.698111 0.699251 0.70998
          0.714756 0.720612 0.712275 0.60067 0.683219 0.689575
          0.68593 0.678052 0.684792 0.68787 0.710077 0.693873
          0.697729 0.696297 0.697938 0.707315 0.70582 0.698231
          0.699861 0.70742 0.712247 0.694374 0.710211 0.697978
          0.687545 0.689866 0.673439 0.678377 0.689475 0.677435
          0.690028 0.687816 0.69296 0.703689 0.6965 0.703486
          0.614177 0.695097 0.690677 0.724975 0.691292 0.708124
          0.706753 0.69505 0.700501 0.688408 0.688533 0.695009
          0.714476 0.696365 0.693407 0.701962 0.695541 0.702316
          0.693685 0.709295 0.688123 0.704156 0.69095 0.683468
          0.696634 0.703572 0.692195 0.701579 0.696606 0.696974
          0.695871 0.69368 0.691217 0.616441 0.694805 0.693077
          0.711299 0.707758 0.701139 0.710023 0.726025 0.702607
          0.69325 0.698654 0.703371 0.694159 0.701259 0.712778
          0.699921 0.68875 0.692542 0.706656 0.685358 0.695929
          0.699767 0.688458 0.681987 0.68483 0.68994 0.689524
          0.687368 0.696572 0.679017 0.689419 0.687365 0.694441
          0.590953 0.674176 0.692832 0.692428 0.682729 0.677187
          0.685263 0.706897 0.68041 0.691744 0.710064 0.690208
          0.702338 0.703903 0.706051 0.698278 0.709206 0.704929
          0.69806 0.699188 0.697323 0.705596 0.70438 0.710377
          0.705803 0.702274 0.713641 0.728194 0.708477 0.718397
          0.703617 0.715408 0.713025 0.611002 0.6946 0.691892
          0.707554 0.702883 0.700236 0.693448 0.696542 0.69944
          0.708423 0.700822 0.694852 0.700866 0.707318 0.692465
          0.70371 0.695602 0.69932 0.701661 0.705649 0.681306
          0.689636 0.693687 0.686308 0.69 0.694524 0.693291
          0.693256 0.686031 0.683257 0.698681 0.676046 0.679071
          0.592841 0.690722 0.677794 0.685692 0.690815 0.695334
          0.686935 0.702361 0.691867 0.697405 0.69617 0.699914
          0.705562 0.691836 0.688214 0.694485 0.697878 0.719964
          0.689031 0.690072 0.684487 0.687908 0.698158 0.688739
          0.69405 0.694126 0.692573 0.693653 0.696039 0.701291
          0.699121 0.692113 0.689104 0.599532 0.68914 0.681527
          0.680404 0.69329 0.684415 0.685326 0.708713 0.703118
          0.699673 0.688377 0.696766 0.699983 0.711821 0.686248
          0.707682 0.696565 0.701837 0.707481 0.698305 0.708231
          0.723627 0.703633 0.702627 0.710872 0.714304 0.701753
          0.698963 0.712943 0.700621 0.720285 0.699863 0.717914
          0.582265 0.686298 0.686257 0.685488 0.695078 0.680538
          0.687526 0.718129 0.70028 0.698768 0.708584 0.712833
          0.704163 0.702746 0.706679 0.704684 0.695207 0.695986
          0.690996 0.696671 0.684602 0.709196 0.683644 0.687337
          0.696736 0.689843 0.690503 0.682139 0.703105 0.681216
          0.701881 0.700422 0.712313 0.616547 0.69837 0.703826
          0.702465 0.696431 0.694484 0.704061 0.701409 0.701926
          0.696888 0.698294 0.706949 0.698053 0.711993 0.70389
          0.708716 0.707816 0.696774 0.705953 0.692694 0.69864
          0.687779 0.686377 0.685679 0.690131 0.683557 0.689614
          0.692133 0.688319 0.687145 0.69275 0.683423 0.684747
          0.614015 0.71144 0.70638 0.71728 0.710542 0.687357
          0.693051 0.696516 0.720748 0.700311 0.702206 0.699677
          0.694794 0.697824 0.689759 0.710061 0.702043 0.702532
          0.694449 0.698039 0.685959 0.694656 0.675074 0.698806
          0.689377 0.697182 0.684436 0.689247 0.697442 0.70021
          0.705043 0.691501 0.687848 0.615831 0.707595 0.698558
          0.696348 0.69549 0.6988 0.719249 0.683771 0.70373
          0.704341 0.685183 0.70911 0.70179 0.705204 0.713203
          0.697846 0.704779 0.689606 0.705975 0.687897 0.707714
          0.706947 0.714876 0.712616 0.705438 0.715238 0.706105
          0.705499 0.722101 0.713418 0.707737 0.702854 0.700832
          0.614144 0.705659 0.693112 0.72627 0.699813 0.689432
          0.685431 0.701557 0.705866 0.693169 0.704403 0.694482
          0.699502 0.707621 0.675361 0.720539 0.709421 0.681585
          0.690553 0.693312 0.72587 0.692926 0.706989 0.700973
          0.707489 0.720533 0.712607 0.712637 0.717122 0.7218
          0.733463 0.70908 0.712822 0.613636 0.714362 0.697645
          0.697896 0.699935 0.700845 0.696618 0.703671 0.709269
          0.704417 0.692743 0.698645 0.713818 0.701808 0.70519
          0.714765 0.687648 0.703537 0.694204 0.690124 0.703833
          0.710628 0.72558 0.706699 0.71539 0.714976 0.713409
          0.720927 0.706699 0.709631 0.728922 0.702084 0.699201
          0.603848 0.68554 0.698627 0.697923 0.705414 0.697949
          0.690095 0.696889 0.714785 0.708333 0.68983 0.689517
          0.702873 0.690475 0.716661 0.696556 0.705556 0.688395
          0.696173 0.706057 0.689893 0.683597 0.684124 0.687129
          0.693689 0.712949 0.696956 0.695395 0.681561 0.69303
          0.690963 0.685549 0.689863 0.618181 0.692408 0.695861
          0.681726 0.696975 0.691291 0.711975 0.698315 0.704886
          0.698471 0.703347 0.694939 0.691629 0.695133 0.715865
          0.700627 0.697845 0.6928 0.701811 0.703201 0.699277
          0.682657 0.68737 0.689763 0.683599 0.69733 0.687741
          0.688603 0.700252 0.699844 0.689011 0.7003 0.70176
          0.600581 0.71686 0.697721 0.720598 0.696707 0.691526
          0.695517 0.696783 0.715235 0.699977 0.703147 0.701596
          0.691183 0.710248 0.694611 0.713835 0.698584 0.700128
          0.707465 0.698367 0.691576 0.686722 0.679253 0.67663
          0.693142 0.684502 0.68381 0.68274 0.680701 0.685282
          0.698969 0.688759 0.681207 0.596114 0.695799 0.69262
          0.688664 0.6998 0.693768 0.694635 0.705751 0.693655
          0.684338 0.695737 0.69521 0.693251 0.71426 0.701259
          0.699568 0.708155 0.681845 0.717035 0.704735 0.679617
          0.686886 0.689604 0.681304 0.695637 0.688669 0.687933
          0.686535 0.691128 0.712395 0.706391 0.690452 0.688282
          0.609563 0.708132 0.710088 0.702513 0.702259 0.702426
          0.700186 0.702537 0.70552 0.716288 0.704874 0.699573
          0.706943 0.699713 0.706661 0.706683 0.68121 0.706237
          0.70024 0.692477 0.695008 0.69193 0.687284 0.691134
          0.689992 0.676266 0.6823 0.695364 0.696722 0.681976
          0.697261 0.683763 0.690709 0.607795 0.707279 0.717255
          0.69455 0.706911 0.687009 0.701464 0.69656 0.706883
          0.694552 0.705833 0.697838 0.68945 0.70916 0.6979
          0.696228 0.699686 0.701998 0.706414 0.687475 0.701019
          0.691381 0.676372 0.697722 0.692015 0.691736 0.686233
          0.693927 0.694527 0.696532 0.700539 0.697305 0.688333
          0.587066 0.683148 0.694508 0.697489 0.68712 0.686654
          0.690338 0.699525 0.687123 0.706207 0.697956 0.709569
          0.695245 0.693034 0.694556 0.700919 0.707731 0.697285
          0.712076 0.69542 0.716902 0.704185 0.704804 0.715629
          0.724395 0.7117 0.71645 0.705423 0.710887 0.703223
          0.695485 0.712857 0.712383 0.584646 0.687085 0.690774
          0.685322 0.687615 0.683666 0.699798 0.687813 0.683426
          0.688236 0.714002 0.707066 0.706346 0.703703 0.687314
          0.71019 0.708049 0.691459 0.710625 0.695024 0.716969
          0.714623 0.706425 0.695881 0.700778 0.693208 0.70225
          0.710701 0.707206 0.704041 0.715606 0.721129 0.702783
          0.618433 0.709545 0.684963 0.702691 0.702097 0.699707
          0.705529 0.687576 0.708519 0.703056 0.711171 0.697475
          0.685341 0.700088 0.710096 0.706726 0.711642 0.692946
          0.700269 0.693113 0.701968 0.700375 0.701537 0.693891
          0.696952 0.716142 0.705147 0.710183 0.712737 0.719236
          0.721198 0.707249 0.699477 0.599028 0.689559 0.683399
          0.692287 0.673707 0.690104 0.688859 0.705576 0.685733
          0.713041 0.69549 0.688775 0.704782 0.709757 0.691103
          0.703343 0.697347 0.695644 0.692275 0.707768 0.684951
          0.698067 0.688249 0.700859 0.701067 0.70091 0.691743
          0.697106 0.692575 0.697229 0.689806 0.693553 0.705781
          0.600998 0.697838 0.712366 0.678813 0.682717 0.688102
          0.693149 0.693731 0.698053 0.686277 0.704012 0.68775
          0.711207 0.698292 0.701135 0.700007 0.700787 0.699715
          0.695055 0.709952 0.701082 0.701011 0.687357 0.704162
          0.694673 0.695268 0.698168 0.681511 0.693879 0.690497
          0.701292 0.694846 0.690364 0.578004 0.678924 0.697713
          0.700357 0.692362 0.689115 0.690709 0.704002 0.688337
          0.692707 0.696072 0.693153 0.699584 0.69001 0.700489
          0.693823 0.704261 0.695157 0.685182 0.697555 0.702002
          0.698665 0.686644 0.701608 0.708891 0.710045 0.699145
          0.688501 0.695867 0.698659 0.681811 0.687513 0.692566
          0.596256 0.683094 0.703881 0.701531 0.698361 0.697503
          0.704455 0.704096 0.684994 0.710205 0.704566 0.688897
          0.701133 0.712228 0.699027 0.703921 0.704657 0.694361
          0.71245 0.690531 0.685435 0.69178 0.698298 0.682667
          0.704631 0.693841 0.673652 0.694396 0.702099 0.699257
          0.681749 0.689357 0.679957 0.582 0.686125 0.700808
          0.689806 0.676769 0.694566 0.688601 0.696972 0.682525
          0.702448 0.68487 0.709276 0.713615 0.704172 0.695372
          0.702082 0.706873 0.715517 0.696402 0.691995 0.709748
          0.705773 0.721557 0.710868 0.707205 0.707476 0.720115
          0.725964 0.707175 0.697407 0.70441 0.706789 0.717516
          0.61914 0.709611 0.707814 0.708846 0.694375 0.707028
          0.71612 0.703779 0.703872 0.709401 0.696569 0.696303
          0.703787 0.708883 0.698602 0.701058 0.702834 0.709573
          0.706938 0.698441 0.701959 0.701495 0.703393 0.702337
          0.704883 0.690017 0.695456 0.694466 0.694263 0.689252
          0.68577 0.705583 0.679126 0.611015 0.700518 0.688798
          0.707484 0.698279 0.70782 0.694713 0.702653 0.698806
          0.686808 0.709886 0.691832 0.698974 0.692699 0.70764
          0.699166 0.697468 0.699325 0.714741 0.702815 0.686101
          0.694285 0.687451 0.68867 0.683355 0.693178 0.682349
          0.686358 0.689312 0.697135 0.724652 0.693577 0.70224
          0.599095 0.710071 0.693221 0.705809 0.708764 0.703345
          0.709551 0.685514 0.706095 0.7063 0.691516 0.686938
          0.716687 0.695881 0.698469 0.712453 0.697185 0.699282
          0.702587 0.711566 0.690105 0.706157 0.688733 0.689722
          0.689555 0.698679 0.692733 0.691985 0.693204 0.70153
          0.689905 0.69529 0.692394 0.606294 0.721685 0.695224
          0.700783 0.697041 0.702702 0.696794 0.703075 0.699753
          0.698061 0.708012 0.698449 0.705553 0.701494 0.701248
          0.692259 0.72376 0.691385 0.690508 0.70511 0.720487
          0.71288 0.691734 0.714933 0.707645 0.711216 0.703852
          0.719118 0.711356 0.697234 0.705003 0.701625 0.714693
          0.608258 0.709024 0.699138 0.704494 0.704133 0.697728
          0.702218 0.69908 0.707016 0.694849 0.716795 0.69736
          0.689898 0.71477 0.698902 0.682945 0.704218 0.694724
          0.721948 0.699213 0.694222 0.698323 0.695245 0.6904
          0.695279 0.693308 0.690284 0.681308 0.685757 0.697668
          0.7042 0.691832 0.672789 0.607426 0.701141 0.702231
          0.704557 0.696074 0.699406 0.69558 0.702011 0.699234
          0.694973 0.700215 0.707778 0.688183 0.699912 0.703947
          0.69802 0.700537 0.685046 0.697161 0.701324 0.716253
          0.716595 0.708842 0.700592 0.710491 0.717737 0.701181
          0.717427 0.714496 0.711022 0.710333 0.703566 0.713265
          0.587098 0.678318 0.714075 0.689599 0.687456 0.688349
          0.686018 0.695975 0.697114 0.704345 0.680627 0.68505
          0.710479 0.698649 0.705731 0.681637 0.696652 0.70316
          0.695298 0.695658 0.717054 0.707651 0.706248 0.717433
          0.71591 0.711216 0.723051 0.71847 0.719024 0.711406
          0.704802 0.709729 0.723753 0.59397 0.68852 0.689778
          0.68208 0.68676 0.695524 0.68864 0.703327 0.691642
          0.704231 0.700333 0.69036 0.709258 0.684239 0.719882
          0.692974 0.710572 0.688984 0.695404 0.707925 0.710715
          0.716824 0.71285 0.698044 0.711354 0.714224 0.709775
          0.702839 0.70993 0.705077 0.697391 0.704711 0.703604
          0.590542 0.695211 0.682289 0.68473 0.694301 0.67501
          0.690768 0.695649 0.706437 0.700203 0.701733 0.708118
          0.686156 0.706295 0.688467 0.697596 0.698549 0.689877
          0.696104 0.70216 0.705224 0.716093 0.709071 0.703825
          0.700079 0.700859 0.711822 0.698669 0.713094 0.707481
          0.708542 0.721701 0.719946 0.625255 0.704212 0.689655
          0.69926 0.704392 0.698156 0.694727 0.701224 0.71242
          0.693887 0.705188 0.708068 0.703718 0.704177 0.70497
          0.710295 0.697817 0.697786 0.692588 0.698933 0.706468
          0.70608 0.718113 0.69402 0.696612 0.71041 0.716223
          0.713366 0.712024 0.712152 0.72206 0.708092 0.713998
          0.589236 0.674749 0.710211 0.701017 0.702446 0.689002
          0.68296 0.683757 0.682984 0.695079 0.704303 0.678923
          0.702428 0.704845 0.71854 0.693277 0.693327 0.713432
          0.691778 0.699841 0.705766 0.692238 0.701424 0.694163
          0.70304 0.701985 0.681367 0.684974 0.690786 0.693561
          0.70199 0.6867 0.68742 0.617299 0.701041 0.698873
          0.706053 0.685736 0.696559 0.708738 0.70073 0.692842
          0.69824 0.703423 0.694732 0.698192 0.700402 0.715505
          0.688606 0.695207 0.697624 0.696072 0.6915 0.702187
          0.701564 0.681381 0.700067 0.69318 0.696702 0.708142
          0.706277 0.701949 0.695738 0.701037 0.691923 0.693369
          0.593476 0.687809 0.683399 0.706819 0.6887 0.694799
          0.702843 0.704569 0.699125 0.702416 0.68251 0.682937
          0.701683 0.701475 0.717932 0.693188 0.697894 0.698599
          0.694603 0.699061 0.695341 0.689142 0.702929 0.701995
          0.699662 0.69512 0.685267 0.696328 0.698998 0.686323
          0.679214 0.701395 0.704304 0.586006 0.700616 0.696479
          0.695972 0.678914 0.68056 0.687454 0.685987 0.696897
          0.697768 0.709937 0.681761 0.710998 0.695261 0.702229
          0.692566 0.695356 0.699377 0.695388 0.699391 0.715756
          0.707476 0.70963 0.72083 0.727195 0.717697 0.710606
          0.721936 0.70799 0.702084 0.699259 0.705852 0.705984
          0.589408 0.686715 0.703136 0.694265 0.684702 0.68289
          0.692333 0.708088 0.69146 0.707934 0.700377 0.692077
          0.706801 0.68916 0.697055 0.698432 0.707914 0.708034
          0.708103 0.702619 0.712811 0.709422 0.698478 0.708078
          0.688112 0.691603 0.688126 0.699462 0.690176 0.702469
          0.698802 0.681499 0.705521 0.602144 0.689036 0.683203
          0.690923 0.69212 0.691221 0.696706 0.681744 0.701524
          0.70173 0.712595 0.707863 0.693031 0.716727 0.712074
          0.708345 0.709768 0.698395 0.686459 0.712847 0.697814
          0.686703 0.709305 0.679513 0.689948 0.69173 0.688822
          0.690101 0.694784 0.689934 0.706265 0.692792 0.682908
          0.612882 0.70277 0.686727 0.695885 0.708205 0.703418
          0.706336 0.685018 0.712279 0.692934 0.695272 0.695597
          0.692975 0.707547 0.697081 0.722499 0.704689 0.680943
          0.708527 0.692339 0.694654 0.708897 0.692702 0.710956
          0.717169 0.719263 0.704795 0.69162 0.712108 0.704416
          0.724129 0.719129 0.718754 0.60973 0.700561 0.690185
          0.711682 0.693604 0.702129 0.690763 0.702703 0.706238
          0.702744 0.700629 0.703214 0.68962 0.704102 0.687718
          0.704386 0.711491 0.690657 0.693622 0.696049 0.711407
          0.684773 0.700924 0.701682 0.711184 0.699551 0.698221
          0.710508 0.723263 0.712993 0.730787 0.710047 0.712008
          0.587083 0.675518 0.704539 0.687659 0.679966 0.68495
          0.69563 0.706464 0.690215 0.701402 0.682484 0.695416
          0.70371 0.690163 0.704957 0.697259 0.705372 0.702366
          0.689597 0.701694 0.703629 0.705387 0.694678 0.706973
          0.702429 0.696049 0.713431 0.712611 0.703558 0.701262
          0.70197 0.693201 0.704058 0.608858 0.70505 0.689951
          0.693027 0.702069 0.709091 0.690669 0.705467 0.691594
          0.706782 0.701602 0.708991 0.693131 0.708239 0.700928
          0.694987 0.703721 0.692771 0.693734 0.687424 0.69187
          0.703984 0.706347 0.70292 0.71042 0.708596 0.697568
          0.711392 0.712034 0.703011 0.712142 0.714984 0.707605
          0.591246 0.682271 0.689544 0.690137 0.679496 0.67514
          0.684223 0.70748 0.69797 0.689414 0.698408 0.697016
          0.702967 0.687577 0.693264 0.712809 0.699132 0.694021
          0.690937 0.706818 0.703022 0.687835 0.686379 0.686474
          0.69328 0.673273 0.687102 0.69774 0.678288 0.691562
          0.693853 0.687944 0.697709 0.597997 0.709239 0.695427
          0.689911 0.716452 0.69374 0.701691 0.696621 0.69999
          0.690682 0.695495 0.709076 0.699329 0.699712 0.695733
          0.709237 0.692267 0.705941 0.698118 0.697191 0.680544
          0.695502 0.680648 0.694031 0.693616 0.698133 0.706465
          0.682554 0.701851 0.689818 0.687852 0.689604 0.688262
          0.61863 0.700752 0.702008 0.685743 0.710404 0.69103
          0.701899 0.705262 0.688993 0.69567 0.697617 0.712117
          0.687622 0.702728 0.707364 0.70927 0.698843 0.707221
          0.693744 0.694342 0.697473 0.698683 0.680128 0.686569
          0.694635 0.706986 0.685784 0.683011 0.690884 0.677425
          0.687913 0.710855 0.683852 0.61951 0.71509 0.702093
          0.698522 0.71626 0.684466 0.701379 0.705513 0.702504
          0.695879 0.6937 0.698086 0.69855 0.6966 0.690315
          0.690453 0.706731 0.686324 0.707379 0.695902 0.68901
          0.68523 0.674781 0.691846 0.691775 0.693437 0.683968
          0.700924 0.706511 0.696416 0.707893 0.679804 0.683677
          0.588063 0.68038 0.701845 0.696157 0.692382 0.679628
          0.692393 0.683979 0.683257 0.703424 0.693094 0.673464
          0.715464 0.691116 0.693219 0.692772 0.715117 0.711235
          0.696115 0.695236 0.713241 0.711615 0.711016 0.718709
          0.711833 0.719255 0.701904 0.723936 0.709667 0.7055
          0.709711 0.708303 0.710261 0.587779 0.671923 0.689113
          0.679755 0.680776 0.690711 0.694445 0.709194 0.697965
          0.71574 0.696843 0.695624 0.695006 0.703043 0.693867
          0.699621 0.695352 0.718592 0.695296 0.697465 0.682924
          0.694044 0.692229 0.697264 0.701038 0.692575 0.697276
          0.690541 0.691934 0.69259 0.684537 0.697583 0.688125
          0.5882 0.689563 0.709209 0.695324 0.700398 0.68085
          0.682686 0.689749 0.691561 0.696074 0.691638 0.700631
          0.700406 0.697567 0.696133 0.707402 0.701894 0.69685
          0.696722 0.703781 0.70828 0.724651 0.708045 0.717998
          0.703677 0.709067 0.720817 0.703172 0.70872 0.718949
          0.733521 0.702339 0.705467 0.594121 0.698627 0.703681
          0.690101 0.694409 0.69583 0.70099 0.692389 0.691637
          0.711133 0.688374 0.687192 0.710782 0.695479 0.7001
          0.696166 0.705506 0.706278 0.695141 0.707821 0.702306
          0.705082 0.7021 0.701878 0.708072 0.691323 0.692986
          0.693215 0.691135 0.685034 0.675656 0.691204 0.685496
          0.607473 0.690913 0.708681 0.706037 0.696208 0.697629
          0.711035 0.69539 0.698101 0.701699 0.697569 0.693206
          0.68569 0.699181 0.708142 0.702155 0.692327 0.707876
          0.698888 0.70032 0.699938 0.711464 0.69899 0.697064
          0.690739 0.710292 0.695156 0.707158 0.6926 0.7004
          0.702566 0.692959 0.683955 0.608112 0.691263 0.706824
          0.707976 0.691481 0.703524 0.696525 0.707789 0.678485
          0.693254 0.693885 0.689108 0.7073 0.70785 0.703123
          0.692496 0.691057 0.689567 0.696588 0.701088 0.70631
          0.682978 0.70235 0.692402 0.714664 0.711205 0.708614
          0.697642 0.703994 0.700043 0.688016 0.692696 0.696398
          0.613864 0.698245 0.698037 0.701164 0.681237 0.69576
          0.679505 0.695299 0.689945 0.677942 0.688962 0.696284
          0.702419 0.703395 0.688283 0.695494 0.706008 0.707328
          0.707316 0.696941 0.69763 0.703311 0.711728 0.703209
          0.705495 0.69745 0.690831 0.724577 0.716309 0.703842
          0.700397 0.69575 0.707481 0.607343 0.696552 0.680029
          0.685332 0.700281 0.683919 0.69432 0.687245 0.708814
          0.683494 0.693117 0.691008 0.689438 0.705965 0.700407
          0.696817 0.698223 0.700625 0.705306 0.716423 0.681544
          0.687119 0.704117 0.678082 0.689796 0.700997 0.689485
          0.686435 0.689187 0.677592 0.70778 0.690436 0.687429
          0.616802 0.715545 0.706338 0.703252 0.705726 0.708769
          0.694816 0.694975 0.701486 0.701469 0.703378 0.704165
          0.683851 0.703082 0.694544 0.702892 0.694037 0.691193
          0.700658 0.714426 0.67567 0.675773 0.679606 0.689105
          0.693217 0.693259 0.690437 0.691276 0.674728 0.696695
          0.70098 0.703952 0.687991 0.602064 0.698169 0.689657
          0.702225 0.686203 0.695726 0.697943 0.69666 0.690122
          0.69745 0.696991 0.700635 0.710977 0.693585 0.699494
          0.701667 0.693268 0.68987 0.69711 0.705077 0.690914
          0.710577 0.698076 0.701047 0.709629 0.700578 0.702588
          0.699958 0.701502 0.692334 0.685108 0.694984 0.691802
          0.621759 0.697486 0.712344 0.69606 0.696683 0.697922
          0.699877 0.695214 0.7055 0.69704 0.698027 0.695809
          0.701567 0.704866 0.702549 0.694459 0.702276 0.706188
          0.683363 0.690391 0.707725 0.708618 0.712861 0.713418
          0.718973 0.709195 0.703248 0.709766 0.722953 0.703762
          0.709262 0.710035 0.706187 0.588968 0.677806 0.6894
          0.688954 0.684446 0.683837 0.697381 0.683493 0.700434
          0.697289 0.692624 0.69766 0.70083 0.696655 0.695012
          0.696158 0.701689 0.71204 0.703241 0.693201 0.721377
          0.718231 0.713831 0.716347 0.709373 0.700355 0.703929
          0.708661 0.693869 0.709831 0.713371 0.729174 0.711499
          0.596169 0.681582 0.693044 0.677005 0.685354 0.69479
          0.695337 0.684714 0.700187 0.682578 0.692828 0.701339
          0.699208 0.707673 0.701344 0.691268 0.710387 0.696923
          0.699786 0.684844 0.702431 0.713379 0.703945 0.711544
          0.709986 0.710009 0.711569 0.711132 0.707801 0.713212
          0.704731 0.724918 0.718867 0.610516 0.714448 0.701696
          0.693501 0.695511 0.695576 0.712619 0.714129 0.693446
          0.690069 0.70365 0.697842 0.696478 0.699729 0.696836
          0.689519 0.712449 0.703299 0.696629 0.702188 0.705591
          0.70422 0.707456 0.706278 0.703101 0.709869 0.710727
          0.708622 0.703434 0.70817 0.694904 0.718304 0.710626
          0.611996 0.68529 0.713424 0.690571 0.700084 0.690889
          0.704496 0.707521 0.719839 0.687409 0.696117 0.709196
          0.712188 0.694988 0.704653 0.712829 0.699749 0.703523
          0.704127 0.685547 0.710557 0.713252 0.709679 0.706771
          0.713996 0.698212 0.715265 0.715534 0.696472 0.696416
          0.693446 0.698241 0.698305 0.600507 0.683779 0.675918
          0.688513 0.702571 0.684111 0.676368 0.713291 0.695433
          0.710928 0.686608 0.711935 0.698294 0.709321 0.702517
          0.696125 0.686869 0.709273 0.697654 0.711303 0.712739
          0.710989 0.71355 0.700278 0.705271 0.715174 0.703589
          0.697473 0.708557 0.715004 0.714457 0.700569 0.707548
          0.614425 0.694879 0.701973 0.697597 0.706285 0.702259
          0.701826 0.707179 0.684954 0.696755 0.700705 0.697785
          0.711396 0.69507 0.702475 0.715327 0.704537 0.707018
          0.696191 0.699287 0.727596 0.714114 0.707588 0.699818
          0.713207 0.696164 0.707154 0.709777 0.701764 0.7059
          0.7062 0.712046 0.714887 0.587056 0.675973 0.696257
          0.693856 0.685997 0.699678 0.680866 0.684821 0.700977
          0.708115 0.702038 0.703633 0.690168 0.693929 0.690899
          0.699142 0.707434 0.697253 0.712277 0.686932 0.721463
          0.717787 0.694776 0.696309 0.713421 0.725764 0.707075
          0.710112 0.707276 0.711228 0.692332 0.701936 0.711975
          0.614184 0.726756 0.689929 0.706539 0.69579 0.681272
          0.704477 0.686572 0.69194 0.695931 0.720518 0.704447
          0.689781 0.703043 0.694299 0.713357 0.702157 0.689655
          0.697748 0.70141 0.699602 0.70572 0.71164 0.7021
          0.719699 0.711187 0.699177 0.704193 0.697365 0.702722
          0.718758 0.708612 0.719793 0.600015 0.687368 0.698916
          0.704082 0.68544 0.69202 0.695781 0.705264 0.699158
          0.698538 0.696122 0.685791 0.707745 0.683615 0.709074
          0.705735 0.701435 0.711229 0.697199 0.698203 0.696198
          0.706266 0.705431 0.706059 0.711315 0.701169 0.705835
          0.708797 0.698113 0.692308 0.693667 0.701014 0.702894
          0.604911 0.695252 0.6893 0.704824 0.692939 0.696306
          0.70777 0.703167 0.699033 0.70555 0.70166 0.689653
          0.711911 0.701215 0.704163 0.717313 0.693237 0.701512
          0.693558 0.698648 0.694094 0.710483 0.710872 0.705635
          0.692482 0.693679 0.690928 0.696207 0.690348 0.69294
          0.692256 0.691687 0.688497 0.62394 0.703709 0.699699
          0.707384 0.698367 0.70337 0.696823 0.697413 0.704413
          0.701038 0.698452 0.709652 0.685933 0.710648 0.704092
          0.705154 0.700857 0.684136 0.711235 0.70717 0.699571
          0.698119 0.68824 0.683684 0.697495 0.703657 0.694918
          0.703195 0.694749 0.700794 0.702567 0.694621 0.695427
          0.605962 0.70109 0.706212 0.707759 0.695467 0.691455
          0.70498 0.700478 0.709478 0.697756 0.685557 0.705616
          0.693429 0.710551 0.689874 0.706454 0.706517 0.685861
          0.709876 0.715345 0.694525 0.688011 0.710615 0.684519