<?xml version="1.0"?>
<VTKFile type="PolyData" version="0.1" byte_order="LittleEndian" header_type="UInt32" compressor="vtkZLibDataCompressor">
  <PolyData>
    <Piece NumberOfPoints="8160" NumberOfVerts="0" NumberOfLines="0" NumberOfStrips="0" NumberOfPolys="0">
      <PointData Scalars="Calcium Concentration">
        <DataArray type="Float32" Name="Calcium Concentration" format="ascii" RangeMin="0.08735799789428711" RangeMax="0.7406839728355408">
          0.0965133 0.676492 0.691938 0.704903 0.720487 0.703061
          0.695485 0.701077 0.684481 0.705534 0.693823 0.708955
          0.693424 0.701203 0.702533 0.702296 0.692573 0.709131
          0.687501 0.686304 0.706855 0.685328 0.69194 0.682463
          0.684432 0.685013 0.689775 0.705187 0.700143 0.688638
          0.701967 0.700423 0.695644 0.688827 0.0986881 0.692736
          0.698158 0.703377 0.710297 0.701823 0.703918 0.691126
          0.703612 0.701268 0.700984 0.699042 0.703935 0.709949
          0.697964 0.713085 0.694228 0.708253 0.706946 0.690791
          0.688636 0.690127 0.683165 0.671982 0.673807 0.697047
          0.686124 0.68924 0.69135 0.685343 0.708566 0.684274
          0.688949 0.699921 0.100342 0.655495 0.689204 0.685535
          0.683559 0.692928 0.689862 0.685245 0.690639 0.709779
          0.68701 0.697371 0.699172 0.70736 0.703014 0.711065
          0.703874 0.718063 0.710036 0.695356 0.718204 0.707712
          0.713312 0.717573 0.695369 0.708757 0.707402 0.715967
          0.708221 0.70577 0.704339 0.704738 0.708882 0.714127
          0.101995 0.68104 0.690791 0.69006 0.701377 0.696315
          0.708988 0.698901 0.715412 0.713516 0.705414 0.695871
          0.703218 0.706663 0.696035 0.700633 0.699953 0.705096
          0.705589 0.697493 0.709387 0.695564 0.689277 0.685305
          0.693284 0.700142 0.692938 0.698718 0.709114 0.694104
          0.69491 0.700038 0.693983 0.695288 0.098732 0.665366
          0.688294 0.679095 0.68697 0.691908 0.686166 0.678673
          0.707712 0.702337 0.698532 0.699068 0.693963 0.70583
          0.692332 0.709124 0.700108 0.702381 0.712735 0.693588
          0.712968 0.693552 0.697955 0.67572 0.69388 0.688826
          0.696207 0.688794 0.694882 0.688025 0.689814 0.702748
          0.701344 0.695661 0.102383 0.682274 0.698346 0.708424
          0.703146 0.70015 0.698693 0.705682 0.679214 0.702605
          0.710106 0.704916 0.691448 0.696008 0.697624 0.696716
          0.69087 0.685986 0.699832 0.710269 0.696304 0.717003
          0.703088 0.701251 0.707786 0.716381 0.710434 0.703054
          0.696412 0.6988 0.718767 0.703038 0.703366 0.705425
          0.102451 0.666478 0.686094 0.682064 0.685038 0.690358
          0.682165 0.686193 0.691873 0.724753 0.69192 0.693268
          0.70303 0.694988 0.701466 0.689087 0.698154 0.710361
          0.692967 0.69575 0.692252 0.711252 0.696878 0.705875
          0.704003 0.712412 0.719662 0.715573 0.721892 0.714331
          0.710438 0.710015 0.703917 0.71219 0.0987943 0.673533
          0.692105 0.698536 0.683477 0.709058 0.689612 0.687129
          0.685499 0.708164 0.718527 0.695813 0.690705 0.705979
          0.690143 0.720261 0.701031 0.695642 0.692293 0.694977
          0.688424 0.699418 0.690638 0.678775 0.689164 0.694342
          0.697201 0.684839 0.680603 0.692133 0.69343 0.689798
          0.670817 0.700836 0.0945374 0.670142 0.68465 0.68036
          0.677649 0.687142 0.686846 0.697981 0.697086 0.706766
          0.702516 0.690426 0.698237 0.699298 0.685987 0.710152
          0.694161 0.696702 0.706329 0.700753 0.695981 0.708712
          0.691527 0.707272 0.694454 0.716455 0.70589 0.715552
          0.713058 0.706644 0.716711 0.708435 0.709539 0.722516
          0.100663 0.676374 0.687385 0.698602 0.70537 0.714571
          0.697238 0.6943 0.70569 0.696571 0.700506 0.690425
          0.694339 0.702383 0.70092 0.695956 0.700568 0.700633
          0.716452 0.683544 0.707855 0.710366 0.685171 0.708733
          0.701567 0.707317 0.705481 0.71071 0.704307 0.698254
          0.715489 0.700745 0.720362 0.710997 0.10046 0.681359
          0.696992 0.705287 0.685359 0.718846 0.694173 0.700356
          0.704185 0.697322 0.700926 0.692936 0.696524 0.704307
          0.692177 0.700924 0.693207 0.686303 0.693019 0.705802
          0.705631 0.708424 0.703976 0.70855 0.710085 0.696589
          0.704794 0.706088 0.715251 0.715389 0.710864 0.697973
          0.712058 0.709738 0.0948974 0.671732 0.679957 0.689122
          0.684213 0.684868 0.688995 0.697357 0.70679 0.697953
          0.69962 0.702607 0.690081 0.698988 0.696606 0.713012
          0.693462 0.699181 0.702261 0.689668 0.691846 0.686505
          0.706123 0.687574 0.68457 0.695632 0.697456 0.689361
          0.684627 0.693052 0.695075 0.697114 0.696788 0.702413
          0.0966083 0.680488 0.703133 0.698084 0.694504 0.692878
          0.705838 0.705859 0.708035 0.698365 0.702368 0.697771
          0.70292 0.689091 0.697096 0.700398 0.698824 0.704936
          0.70907 0.689827 0.695485 0.691054 0.703149 0.682491
          0.687469 0.695447 0.69667 0.689192 0.702811 0.69694
          0.694668 0.691209 0.708035 0.701743 0.102499 0.685495
          0.69133 0.704791 0.710169 0.699979 0.701449 0.683742
          0.707673 0.71142 0.708529 0.688635 0.689693 0.712235
          0.710568 0.699412 0.694697 0.690324 0.708894 0.691923
          0.685102 0.698328 0.684034 0.678165 0.675706 0.695027
          0.690866 0.69215 0.691911 0.692933 0.69787 0.687207
          0.686282 0.70384 0.0950694 0.655244 0.682172 0.705182
          0.693579 0.688556 0.694642 0.693294 0.685479 0.703947
          0.693233 0.719268 0.693225 0.706521 0.689721 0.691389
          0.705121 0.697972 0.706465 0.703395 0.702257 0.705785
          0.715772 0.709161 0.700927 0.721477 0.70156 0.702214
          0.717272 0.719715 0.707798 0.718053 0.712971 0.703092
          0.0890115 0.691485 0.701269 0.69574 0.718872 0.699833
          0.700647 0.700499 0.717143 0.710755 0.690851 0.708471
          0.711645 0.700397 0.698018 0.70293 0.699859 0.700501
          0.698144 0.705336 0.693389 0.688019 0.69976 0.680483
          0.690082 0.691799 0.68907 0.68555 0.685682 0.69533
          0.691048 0.6917 0.681961 0.694423 0.0891618 0.664402
          0.696279 0.688185 0.693984 0.68902 0.696404 0.684999
          0.699803 0.690814 0.704414 0.705943 0.698161 0.697876
          0.690516 0.698665 0.693722 0.710286 0.708249 0.699273
          0.699763 0.695339 0.705222 0.684003 0.691055 0.688157
          0.68729 0.7049 0.704132 0.706021 0.71099 0.706297
          0.686764 0.706157 0.0909467 0.675455 0.678021 0.672841
          0.684634 0.701094 0.68493 0.706061 0.692299 0.709131
          0.698997 0.699518 0.701497 0.700741 0.702164 0.699222
          0.695409 0.70529 0.694517 0.697143 0.691828 0.711767
          0.708754 0.70446 0.706913 0.727481 0.701428 0.699174
          0.716707 0.708167 0.708713 0.700717 0.715261 0.723189
          0.0913506 0.659626 0.686896 0.686978 0.689978 0.687351
          0.693858 0.688445 0.706719 0.693945 0.706008 0.690426
          0.695474 0.703384 0.694809 0.701649 0.701415 0.707363
          0.698619 0.705564 0.689453 0.690011 0.696591 0.689935
          0.69411 0.707932 0.687507 0.680887 0.681775 0.69583
          0.697783 0.682507 0.701617 0.700845 0.102528 0.672047
          0.692219 0.703769 0.691102 0.696769 0.700771 0.687643
          0.696467 0.706918 0.691133 0.70037 0.693328 0.691964
          0.6982 0.693092 0.696888 0.706656 0.70796 0.696737
          0.679857 0.69874 0.680694 0.684589 0.697262 0.68458
          0.685361 0.690039 0.697517 0.688378 0.687367 0.68666
          0.688032 0.688434 0.094919 0.685245 0.692065 0.694442
          0.69582 0.699889 0.693053 0.713416 0.690195 0.689343
          0.712682 0.693022 0.700851 0.706626 0.68511 0.689828
          0.704248 0.700942 0.708381 0.697261 0.694777 0.69411
          0.678686 0.686024 0.691601 0.686071 0.687823 0.687615
          0.697648 0.690801 0.696849 0.694963 0.696555 0.702774
          0.0967149 0.672902 0.691971 0.696168 0.697909 0.697918
          0.71032 0.706603 0.685287 0.708408 0.700721 0.683976
          0.716093 0.698623 0.684584 0.69455 0.693559 0.712406
          0.692869 0.709236 0.698982 0.703835 0.706877 0.7099
          0.703199 0.716292 0.711964 0.698487 0.725637 0.704181
          0.727336 0.699396 0.700085 0.709197 0.0967698 0.691542
          0.682098 0.705633 0.706401 0.699973 0.69796 0.704976
          0.699184 0.699809 0.697523 0.695921 0.696982 0.693273
          0.68809 0.688218 0.704869 0.703576 0.699529 0.704005
          0.709851 0.716729 0.689573 0.708863 0.71188 0.711501
          0.706188 0.706184 0.701009 0.694383 0.71929 0.716065
          0.729577 0.717082 0.0945434 0.689105 0.707978 0.692398
          0.699325 0.693262 0.698877 0.695103 0.694098 0.699503
          0.691746 0.698502 0.695001 0.714191 0.690245 0.705516
          0.697641 0.714928 0.701918 0.685337 0.712551 0.703166
          0.712846 0.705013 0.711763 0.717113 0.709605 0.708801
          0.721487 0.701665 0.709404 0.710098 0.714077 0.716567
          0.0950651 0.674128 0.69869 0.699387 0.702731 0.693135
          0.702288 0.707944 0.697097 0.703291 0.700876 0.700243
          0.682657 0.702989 0.692416 0.701204 0.711365 0.68591
          0.699543 0.701349 0.694627 0.680541 0.674517 0.70295
          0.682715 0.697635 0.698055 0.688314 0.69544 0.704171
          0.68977 0.684155 0.684239 0.692486 0.0968042 0.667087
          0.707869 0.710505 0.697961 0.70951 0.703443 0.707693
          0.69139 0.706476 0.688168 0.712209 0.701133 0.709434
          0.703668 0.707303 0.695654 0.715065 0.698775 0.70882
          0.714539 0.686222 0.683593 0.681714 0.688135 0.688536
          0.69835 0.695654 0.69652 0.702699 0.689919 0.686966
          0.69325 0.697815 0.100579 0.68152 0.687367 0.705409
          0.707093 0.709132 0.703517 0.694722 0.700041 0.691004
          0.714772 0.694291 0.699414 0.70332 0.695808 0.693623
          0.713316 0.716388 0.685388 0.691206 0.70942 0.700403
          0.683704 0.699984 0.690898 0.696674 0.686402 0.690914
          0.680517 0.687706 0.680859 0.676906 0.696304 0.682821
          0.108249 0.675207 0.687239 0.691656 0.687702 0.69512
          0.68959 0.693558 0.687314 0.7071 0.695877 0.682444
          0.686617 0.688824 0.685384 0.705314 0.695896 0.690036
          0.696013 0.687344 0.705101 0.699125 0.689707 0.686847
          0.684746 0.697761 0.686311 0.682809 0.681602 0.682459
          0.705316 0.692613 0.676363 0.706914 0.094999 0.678341
          0.692484 0.688779 0.690514 0.698836 0.69935 0.706306
          0.697604 0.718452 0.687009 0.685169 0.706315 0.70753
          0.705277 0.696609 0.693952 0.701383 0.686061 0.705228
          0.697004 0.685701 0.682629 0.681088 0.697489 0.689264
          0.685029 0.683844 0.712675 0.703598 0.685691 0.699073
          0.691555 0.686205 0.0950542 0.681798 0.691936 0.688011
          0.69892 0.693014 0.700616 0.700021 0.698645 0.708289
          0.697773 0.692358 0.703782 0.695254 0.687439 0.723077
          0.692006 0.697478 0.710029 0.694038 0.704945 0.686191
          0.691529 0.687882 0.686458 0.692992 0.683823 0.700611
          0.698209 0.687176 0.692525 0.68095 0.673648 0.697737
          0.0948794 0.664942 0.69132 0.687674 0.683347 0.697071
          0.679417 0.703533 0.684837 0.692318 0.701969 0.704648
          0.700232 0.706372 0.706237 0.707786 0.694414 0.693798
          0.694839 0.701282 0.700351 0.713894 0.710482 0.716348
          0.713195 0.720683 0.721142 0.692934 0.712904 0.713304
          0.68958 0.697776 0.704153 0.710906 0.0968776 0.668285
          0.700594 0.694713 0.687258 0.703211 0.705189 0.685566
          0.689578 0.687818 0.696691 0.69416 0.692094 0.69816
          0.694481 0.704478 0.696803 0.702751 0.706953 0.686328
          0.704337 0.699118 0.724412 0.708583 0.691202 0.723249
          0.687581 0.706866 0.718668 0.710506 0.714589 0.711218
          0.709493 0.714618 0.08913 0.676232 0.699623 0.698224
          0.708757 0.70524 0.703925 0.696595 0.692735 0.714108
          0.686539 0.69146 0.710582 0.699315 0.684823 0.701812
          0.693412 0.703486 0.709845 0.694694 0.704923 0.706399
          0.703087 0.704794 0.698616 0.704188 0.70089 0.708388
          0.706162 0.705231 0.719062 0.716339 0.714198 0.715306
          0.100652 0.667712 0.682635 0.702969 0.680104 0.68811
          0.695305 0.695081 0.688531 0.688574 0.71824 0.706173
          0.689949 0.700321 0.700865 0.709947 0.697455 0.698594
          0.706818 0.683807 0.712602 0.688096 0.68981 0.711513
          0.701346 0.686873 0.698649 0.693984 0.683482 0.690696
          0.693367 0.684475 0.700449 0.698675 0.0990445 0.675103
          0.690647 0.68889 0.676143 0.691889 0.687223 0.688661
          0.695543 0.710246 0.699512 0.709423 0.693849 0.70142
          0.69503 0.704527 0.699869 0.695195 0.700848 0.717744
          0.704943 0.700758 0.690413 0.68433 0.683011 0.688789
          0.70185 0.697487 0.682753 0.703266 0.685376 0.694474
          0.681539 0.683219 0.0985926 0.651188 0.681274 0.701233
          0.700295 0.695282 0.679032 0.688231 0.695075 0.686156
          0.69003 0.696147 0.697652 0.702935 0.711988 0.711541
          0.704218 0.704124 0.696798 0.709689 0.693541 0.707857
          0.693953 0.69883 0.711156 0.702184 0.702614 0.706388
          0.698155 0.69842 0.695777 0.679191 0.687982 0.686871
          0.0911565 0.672702 0.692292 0.70316 0.699319 0.703497
          0.700674 0.693492 0.708461 0.70317 0.690395 0.716158
          0.689359 0.693147 0.687023 0.704911 0.695711 0.69983
          0.698115 0.715706 0.703808 0.687849 0.699498 0.678935
          0.686183 0.699302 0.686229 0.688024 0.702233 0.695666
          0.685213 0.678204 0.690598 0.686226 0.0965042 0.645958
          0.684826 0.692595 0.704271 0.679227 0.687874 0.693878
          0.701295 0.698371 0.698488 0.692553 0.703606 0.692492
          0.690715 0.705097 0.689804 0.69696 0.697279 0.704304
          0.697318 0.699187 0.707743 0.703917 0.70568 0.708346
          0.711062 0.719042 0.712418 0.711441 0.698264 0.721467
          0.712914 0.716385 0.102097 0.686248 0.690733 0.702932
          0.69952 0.690101 0.698392 0.693848 0.695979 0.704346
          0.689455 0.706988 0.697024 0.693362 0.703953 0.700392
          0.704303 0.699278 0.71267 0.702784 0.705997 0.699109
          0.689631 0.707129 0.710522 0.704158 0.711634 0.68944
          0.677967 0.695004 0.693038 0.680364 0.692328 0.695429
          0.0947783 0.683192 0.698892 0.69736 0.691428 0.700114
          0.692338 0.695361 0.697951 0.693612 0.699825 0.697743
          0.714651 0.701754 0.685258 0.711196 0.701233 0.714047
          0.69237 0.692885 0.706113 0.699323 0.688716 0.678846
          0.694303 0.683933 0.690419 0.68855 0.695217 0.700522
          0.711098 0.694472 0.683013 0.695993 0.094776 0.675413
          0.701165 0.70756 0.700522 0.694552 0.703556 0.698659
          0.712436 0.698833 0.697526 0.712998 0.697697 0.699493
          0.701528 0.701843 0.701734 0.708144 0.689864 0.707741
          0.698774 0.695461 0.70276 0.698324 0.700507 0.68904
          0.707619 0.69503 0.697341 0.698832 0.685892 0.697922
          0.684131 0.686414 0.0928934 0.682505 0.715005 0.698091
          0.681151 0.701876 0.695514 0.709658 0.695842 0.700082
          0.708894 0.694545 0.700865 0.701564 0.690312 0.714471
          0.693364 0.708039 0.705453 0.694195 0.697081 0.707952
          0.70326 0.699521 0.711324 0.722137 0.70502 0.7084
          0.7075 0.709973 0.718631 0.707996 0.698109 0.72051
          0.0966563 0.677173 0.694339 0.699258 0.691121 0.697639
          0.706539 0.687043 0.699192 0.706591 0.722314 0.696091
          0.695078 0.696489 0.707368 0.688441 0.701153 0.702951
          0.699912 0.693131 0.686215 0.689021 0.69791 0.688525
          0.68252 0.699083 0.691732 0.685068 0.685922 0.686362
          0.694033 0.69513 0.688048 0.689079 0.0913385 0.683274
          0.690443 0.69344 0.694928 0.709011 0.703911 0.702241
          0.690608 0.704211 0.695786 0.695248 0.702863 0.706712
          0.692368 0.697142 0.698195 0.703118 0.701868 0.68369
          0.702618 0.705026 0.708501 0.711472 0.701172 0.714889
          0.714724 0.691463 0.714055 0.71486 0.697895 0.704639
          0.711793 0.708458 0.0970484 0.647896 0.687392 0.691001
          0.690277 0.68855 0.693845 0.70284 0.704559 0.693097
          0.693055 0.695266 0.677758 0.706233 0.702029 0.697534
          0.698476 0.717646 0.701103 0.710738 0.70549 0.705372
          0.71092 0.708967 0.722122 0.710347 0.712801 0.729265
          0.72828 0.712036 0.694007 0.728338 0.708028 0.704275
          0.0928897 0.655101 0.681966 0.6801 0.688246 0.693733
          0.693483 0.696702 0.689354 0.701492 0.717834 0.697399
          0.685418 0.695635 0.704975 0.707741 0.697084 0.706919
          0.688512 0.703729 0.705484 0.710497 0.707396 0.706479
          0.706238 0.713818 0.711732 0.706061 0.695244 0.713279
          0.703007 0.712113 0.712976 0.715961 0.094774 0.665587
          0.683364 0.682263 0.685021 0.677547 0.69463 0.683866
          0.696219 0.71154 0.698116 0.69553 0.706073 0.701719
          0.699369 0.699848 0.707416 0.700376 0.69943 0.688716
          0.713743 0.706372 0.712665 0.704745 0.694182 0.696863
          0.69116 0.703092 0.710421 0.70842 0.702407 0.713306
          0.722563 0.711368 0.10597 0.693207 0.693815 0.684333
          0.691442 0.705696 0.70154 0.693128 0.702032 0.700606
          0.700102 0.675586 0.692799 0.703369 0.688377 0.702181
          0.704844 0.702755 0.709994 0.707112 0.705767 0.703267
          0.712441 0.706524 0.693009 0.711445 0.706668 0.720598
          0.707172 0.70669 0.722851 0.713232 0.698213 0.72614
          0.087388 0.663526 0.686295 0.700095 0.691156 0.691811
          0.710249 0.685337 0.684357 0.684877 0.713992 0.708355
          0.704991 0.697916 0.688364 0.712903 0.700256 0.697847
          0.705287 0.700273 0.69464 0.690796 0.682033 0.701125
          0.699414 0.685792 0.690565 0.690718 0.684444 0.695866
          0.691765 0.69562 0.69301 0.696529 0.0968964 0.674513
          0.700988 0.704431 0.691281 0.700492 0.697171 0.711428
          0.702494 0.705436 0.691214 0.692669 0.700196 0.685561
          0.71639 0.701827 0.697896 0.695921 0.696198 0.708978
          0.694062 0.697898 0.694048 0.690811 0.692295 0.701365
          0.702001 0.704725 0.696595 0.685354 0.697145 0.69366
          0.687469 0.683406 0.102745 0.66925 0.703589 0.688835
          0.67655 0.687799 0.68215 0.700575 0.703485 0.69785
          0.680926 0.687599 0.690441 0.704147 0.711443 0.706389
          0.690458 0.695675 0.691698 0.708494 0.69284 0.684392
          0.696891 0.68701 0.69467 0.700268 0.686934 0.698272
          0.695653 0.708047 0.682961 0.692391 0.702883 0.710674
          0.0985226 0.657553 0.689475 0.696878 0.697066 0.672616
          0.689857 0.702907 0.696633 0.677396 0.694387 0.708169
          0.697126 0.699659 0.711754 0.71066 0.68894 0.692239
          0.714418 0.706281 0.698868 0.724827 0.708935 0.712671
          0.724912 0.719872 0.708293 0.699184 0.704586 0.705502
          0.692475 0.710714 0.710533 0.698313 0.0988339 0.649655
          0.686696 0.702689 0.694071 0.679044 0.678745 0.695807
          0.702238 0.686426 0.70676 0.703838 0.698881 0.710763
          0.710021 0.703604 0.701012 0.697344 0.703319 0.707806
          0.698453 0.700978 0.692496 0.695524 0.705132 0.671379
          0.695033 0.697472 0.689265 0.682909 0.695728 0.701149
          0.690167 0.701066 0.100323 0.682528 0.695626 0.684022
          0.692016 0.685984 0.707222 0.683607 0.670332 0.707879
          0.713255 0.685642 0.710324 0.701122 0.68911 0.701073
          0.702024 0.702026 0.705243 0.699727 0.705197 0.690713
          0.702044 0.700567 0.671925 0.690457 0.703581 0.694408
          0.678632 0.701553 0.687624 0.694389 0.704056 0.683475
          0.0910235 0.697029 0.710999 0.721894 0.681813 0.69883
          0.700908 0.712134 0.70111 0.711652 0.686492 0.69106
          0.702037 0.702179 0.683127 0.690997 0.701185 0.711413
          0.696081 0.694672 0.696138 0.694455 0.701718 0.704161
          0.722441 0.706678 0.712248 0.710005 0.707111 0.709652
          0.718875 0.711135 0.720641 0.72522 0.100534 0.679217
          0.701106 0.701154 0.702431 0.694991 0.692629 0.688367
          0.697948 0.709658 0.696982 0.685704 0.702485 0.697085
          0.684603 0.69226 0.709406 0.697693 0.700305 0.700753
          0.697824 0.701393 0.708032 0.700082 0.71276 0.697834
          0.695153 0.710774 0.709021 0.703221 0.720068 0.709981
          0.721532 0.703668 0.0911147 0.650965 0.695768 0.693527
          0.685456 0.683837 0.687235 0.685378 0.69558 0.691915
          0.701769 0.694738 0.711589 0.694131 0.704633 0.709099
          0.699153 0.706876 0.697645 0.688908 0.699041 0.694353
          0.687664 0.696115 0.700438 0.702268 0.696812 0.711974
          0.700017 0.706644 0.684726 0.709165 0.699454 0.693574
          0.100484 0.690894 0.709165 0.699089 0.701215 0.698732
          0.709534 0.696466 0.701456 0.67904 0.702539 0.706359
          0.703078 0.694888 0.705175 0.698947 0.697225 0.695449
          0.694653 0.707233 0.699167 0.710651 0.699425 0.703193
          0.707404 0.703171 0.695793 0.697081 0.712944 0.702939
          0.698525 0.709811 0.71679 0.707587 0.0966863 0.662295
          0.681296 0.682347 0.685535 0.681232 0.690249 0.695996
          0.706728 0.709974 0.701453 0.70429 0.701069 0.70372
          0.70368 0.690109 0.711536 0.701263 0.707747 0.700054
          0.696774 0.70796 0.682955 0.684707 0.698064 0.675336
          0.685638 0.686128 0.693873 0.689858 0.690722 0.688894
          0.687951 0.700994 0.0987933 0.681807 0.699161 0.700875
          0.698019 0.713771 0.692942 0.690968 0.688707 0.688992
          0.719509 0.706956 0.689672 0.705111 0.70544 0.68789
          0.708608 0.69818 0.69507 0.701339 0.694468 0.697408
          0.691771 0.689886 0.699441 0.694883 0.697229 0.695123
          0.683516 0.695971 0.675943 0.680739 0.68772 0.683268
          0.0988728 0.686775 0.696933 0.689939 0.70121 0.699462
          0.693008 0.696419 0.697354 0.707542 0.705556 0.706082
          0.694281 0.699428 0.696153 0.693817 0.693892 0.693296
          0.707681 0.694676 0.703829 0.686872 0.691096 0.69687
          0.690316 0.692706 0.690471 0.697445 0.680013 0.68884
          0.68503 0.679615 0.695509 0.691995 0.10621 0.693747
          0.701828 0.693764 0.702324 0.715681 0.677577 0.701913
          0.703509 0.691581 0.710012 0.699485 0.709642 0.715315
          0.698552 0.710856 0.696679 0.703297 0.702867 0.712065
          0.687608 0.688969 0.687187 0.678635 0.680802 0.70278
          0.679274 0.682224 0.689268 0.681875 0.70255 0.681583
          0.691228 0.703078 0.0892337 0.664389 0.688471 0.697724
          0.686019 0.69026 0.685686 0.705132 0.698211 0.680993
          0.69608 0.722718 0.70279 0.700851 0.701151 0.704109
          0.696925 0.701053 0.703616 0.707059 0.696541 0.723378
          0.710708 0.705859 0.714934 0.695201 0.720464 0.717467
          0.718011 0.710711 0.697435 0.728488 0.708472 0.702312
          0.102195 0.659528 0.684783 0.685025 0.681862 0.680611
          0.685293 0.708611 0.697049 0.695299 0.694801 0.712843
          0.692123 0.713204 0.705803 0.694066 0.69333 0.697722
          0.710484 0.700019 0.70539 0.689219 0.684714 0.673149
          0.688091 0.688445 0.693616 0.699258 0.688716 0.688827
          0.690652 0.688349 0.695801 0.691548 0.0966819 0.67022
          0.695909 0.690749 0.694936 0.684986 0.692967 0.6925
          0.686967 0.69639 0.704266 0.701788 0.692095 0.697242
          0.693882 0.693992 0.697246 0.69983 0.707296 0.694393
          0.706601 0.718941 0.716622 0.706317 0.725317 0.714844
          0.698878 0.702171 0.69989 0.712948 0.727616 0.717034
          0.703527 0.722031 0.0969883 0.647151 0.685539 0.708191
          0.69851 0.698755 0.698785 0.715657 0.711683 0.694838
          0.705872 0.703745 0.702639 0.707784 0.707192 0.700055
          0.694538 0.704733 0.699865 0.699341 0.69126 0.699936
          0.70334 0.706565 0.705914 0.703283 0.698716 0.698618
          0.694363 0.701221 0.674352 0.677493 0.689426 0.685356
          0.102405 0.674429 0.707871 0.699015 0.694024 0.702011
          0.700506 0.70201 0.701715 0.693207 0.701903 0.705505
          0.70764 0.706451 0.705491 0.712586 0.686437 0.693067
          0.703251 0.68559 0.710179 0.685728 0.701552 0.68796
          0.697728 0.679231 0.706762 0.679824 0.680267 0.691569
          0.700171 0.682862 0.705549 0.682143 0.102152 0.662052
          0.705512 0.697886 0.691015 0.703842 0.698819 0.709326
          0.697519 0.712011 0.695948 0.710392 0.689885 0.699869
          0.713536 0.689883 0.708918 0.709417 0.704237 0.718608
          0.705191 0.696071 0.687895 0.700423 0.699977 0.694226
          0.707553 0.692457 0.689368 0.710241 0.676534 0.696062
          0.690335 0.694588 0.0984309 0.677824 0.705163 0.700769
          0.688713 0.693085 0.694829 0.691695 0.689364 0.693147
          0.69383 0.681427 0.711117 0.704141 0.691243 0.688647
          0.704277 0.702686 0.700461 0.694751 0.704975 0.694672
          0.699317 0.709569 0.707298 0.698793 0.707213 0.70312
          0.71482 0.708939 0.707036 0.690109 0.715118 0.722373
          0.100537 0.672007 0.678853 0.682947 0.683041 0.698236
          0.693147 0.689982 0.703907 0.693892 0.708494 0.713454
          0.69305 0.712651 0.680653 0.699365 0.694522 0.705361
          0.699134 0.685007 0.695549 0.691748 0.682674 0.681281
          0.681095 0.687654 0.694748 0.682538 0.690698 0.689775
          0.691949 0.694769 0.694086 0.684878 0.103888 0.690198
          0.700494 0.704467 0.696814 0.696153 0.707968 0.695998
          0.703251 0.696125 0.71225 0.677879 0.71551 0.712144
          0.689104 0.697949 0.70618 0.715678 0.692513 0.691712
          0.686193 0.696498 0.679728 0.691328 0.701498 0.698345
          0.680025 0.691382 0.684516 0.689506 0.694283 0.690042
          0.700622 0.714179 0.0987446 0.663843 0.703623 0.697426
          0.69326 0.698353 0.691366 0.703347 0.704581 0.685941
          0.706846 0.706645 0.697911 0.703497 0.695823 0.717465
          0.684363 0.689674 0.705576 0.710227 0.698604 0.692043
          0.712371 0.700158 0.712053 0.688843 0.703258 0.702994
          0.697143 0.704921 0.696553 0.700218 0.704556 0.694757
          0.0983526 0.6799 0.70577 0.695941 0.686813 0.703707
          0.715408 0.708821 0.703939 0.708626 0.690799 0.709773
          0.691651 0.705238 0.711936 0.709936 0.694579 0.70423
          0.71159 0.686351 0.696847 0.712628 0.707613 0.709025
          0.712061 0.710359 0.703991 0.699389 0.712667 0.700666
          0.696985 0.711171 0.717107 0.71527 0.0911945 0.654864
          0.687498 0.692353 0.694175 0.691355 0.684973 0.687167
          0.69166 0.708289 0.698047 0.705277 0.689886 0.698813
          0.708867 0.700621 0.716588 0.690005 0.70189 0.687872
          0.708558 0.715416 0.720151 0.709709 0.709945 0.710863
          0.700219 0.704396 0.702688 0.7075 0.707741 0.711914
          0.708188 0.712067 0.0965738 0.652587 0.695965 0.694637
          0.683536 0.698317 0.698989 0.707655 0.687707 0.684971
          0.687284 0.691549 0.700939 0.70564 0.703839 0.694873
          0.689893 0.685921 0.698118 0.696066 0.711055 0.718094
          0.72406 0.708771 0.713789 0.716288 0.699857 0.712426
          0.71053 0.711983 0.694666 0.700314 0.705769 0.707823
          0.0944947 0.679326 0.692483 0.687553 0.709572 0.695015
          0.702365 0.69275 0.692328 0.698785 0.698843 0.696791
          0.701503 0.701951 0.697977 0.701761 0.685081 0.708142
          0.702449 0.69683 0.704588 0.715321 0.703055 0.699482
          0.707237 0.705092 0.710774 0.724045 0.696693 0.703946
          0.703134 0.715234 0.721432 0.70632 0.100491 0.670427
          0.687436 0.712054 0.694289 0.696536 0.693973 0.701986
          0.703603 0.703013 0.679006 0.700897 0.702661 0.707612
          0.686271 0.682186 0.692746 0.700079 0.698772 0.701808
          0.721471 0.704547 0.694381 0.699643 0.710253 0.712817
          0.69882 0.705403 0.714257 0.708706 0.692494 0.696585
          0.709141 0.706407 0.104412 0.670036 0.685865 0.675455
          0.679903 0.694498 0.693193 0.697369 0.70412 0.699048
          0.705226 0.689506 0.709025 0.700597 0.685159 0.705235
          0.693861 0.696724 0.701279 0.702935 0.700721 0.696316
          0.702749 0.703469 0.700265 0.695937 0.697627 0.703149
          0.699855 0.686145 0.714988 0.699493 0.701277 0.70971
          0.094804 0.679508 0.705648 0.701304 0.686074 0.705386
          0.695206 0.720519 0.691233 0.690233 0.695373 0.717006
          0.688439 0.722191 0.700253 0.701441 0.704802 0.698934
          0.707302 0.692795 0.699815 0.705801 0.702056 0.697474
          0.717979 0.699601 0.714089 0.718135 0.69337 0.70691
          0.691124 0.709491 0.713121 0.696753 0.105993 0.66271
          0.685561 0.690838 0.69251 0.70375 0.696457 0.681263
          0.70322 0.688418 0.69467 0.699679 0.698047 0.709339
          0.693819 0.69802 0.709071 0.683105 0.70491 0.704314
          0.695574 0.701626 0.720027 0.691896 0.697189 0.711969
          0.713556 0.704698 0.719565 0.699881 0.706868 0.697609
          0.705393 0.708107 0.102297 0.677427 0.697334 0.698675
          0.680404 0.726831 0.703263 0.702127 0.692309 0.705833
          0.70071 0.729208 0.699734 0.692109 0.689676 0.707975
          0.691999 0.699646 0.702373 0.707133 0.686317 0.697703
          0.71632 0.701095 0.70387 0.70928 0.703183 0.698331
          0.711159 0.709223 0.709048 0.71923 0.71583 0.726458
          0.0986016 0.655258 0.701456 0.687001 0.696865 0.680542
          0.69109 0.707335 0.717938 0.69891 0.695402 0.697593
          0.68867 0.700935 0.693159 0.702158 0.68929 0.690907
          0.697453 0.703595 0.691049 0.70085 0.701204 0.710996
          0.704831 0.700119 0.695847 0.699808 0.701866 0.70847
          0.673583 0.695328 0.700138 0.691409 0.100669 0.668826