<?xml version="1.0"?>
<VTKFile type="PolyData" version="0.1" byte_order="LittleEndian" header_type="UInt32" compressor="vtkZLibDataCompressor">
  <PolyData>
    <Piece NumberOfPoints="7920" NumberOfVerts="0" NumberOfLines="0" NumberOfStrips="0" NumberOfPolys="0">
      <PointData Scalars="Calcium Concentration">
        <DataArray type="Float32" Name="Calcium Concentration" format="ascii" RangeMin="0.6334390044212341" RangeMax="0.7470970153808594">
          0.670488 0.694301 0.69728 0.714559 0.710136 0.698901
          0.705747 0.694053 0.711376 0.698918 0.70645 0.694475
          0.699304 0.707819 0.696118 0.697595 0.715511 0.690914
          0.683032 0.713275 0.682169 0.689451 0.678188 0.685391
          0.690182 0.687593 0.706234 0.695643 0.690338 0.706272
          0.708806 0.695269 0.688188 0.682064 0.706752 0.706569
          0.705882 0.702089 0.700347 0.697966 0.695466 0.699276
          0.699902 0.696816 0.700833 0.703828 0.700214 0.709502
          0.693267 0.705811 0.706402 0.681572 0.699445 0.691517
          0.687754 0.671643 0.680931 0.684992 0.686804 0.69765
          0.684823 0.69277 0.701019 0.684639 0.688596 0.699833
          0.651052 0.684463 0.681783 0.686441 0.69324 0.68284
          0.686949 0.693031 0.711402 0.695066 0.696878 0.702937
          0.703913 0.703833 0.711766 0.714132 0.71577 0.708307
          0.696526 0.716113 0.707252 0.709889 0.719199 0.701329
          0.713067 0.706654 0.711309 0.698888 0.711858 0.705305
          0.712488 0.713126 0.708878 0.672276 0.688682 0.694319
          0.709021 0.700094 0.69775 0.700588 0.700934 0.710322
          0.699762 0.690516 0.704275 0.71068 0.697228 0.700773
          0.701382 0.706357 0.711265 0.694501 0.709344 0.701038
          0.686654 0.690961 0.691497 0.695913 0.697522 0.702825
          0.700143 0.692835 0.698394 0.697685 0.696835 0.692389
          0.6483 0.687282 0.685364 0.687697 0.682942 0.687405
          0.682196 0.702693 0.698643 0.692933 0.705691 0.695235
          0.707647 0.694362 0.706621 0.690979 0.700451 0.706737
          0.691837 0.709579 0.696058 0.697791 0.683002 0.696477
          0.683638 0.685928 0.690734 0.692045 0.67826 0.690116
          0.694407 0.701458 0.698916 0.666622 0.697861 0.707318
          0.708683 0.707022 0.696666 0.705233 0.687346 0.705714
          0.707425 0.703843 0.697966 0.695286 0.690374 0.702595
          0.697251 0.684724 0.693178 0.706109 0.692665 0.710118
          0.694695 0.695737 0.703281 0.716221 0.701233 0.706235
          0.703946 0.70278 0.718527 0.710367 0.695086 0.703086
          0.653422 0.687044 0.681732 0.687331 0.695059 0.689193
          0.682657 0.686735 0.724093 0.699085 0.693471 0.704422
          0.689232 0.704037 0.690669 0.69817 0.697056 0.691729
          0.690067 0.692164 0.706991 0.695771 0.703079 0.709456
          0.716195 0.72242 0.714169 0.725026 0.713555 0.71541
          0.71036 0.715939 0.71456 0.662278 0.687571 0.698335
          0.681272 0.706765 0.69393 0.681668 0.682091 0.707176
          0.712302 0.692557 0.690407 0.695691 0.696547 0.70733
          0.703445 0.699063 0.692321 0.691317 0.696998 0.704232
          0.681524 0.680238 0.686118 0.690805 0.694578 0.687963
          0.680256 0.678844 0.691145 0.689063 0.677 0.696268
          0.666953 0.685515 0.688961 0.679246 0.681664 0.690358
          0.688534 0.696664 0.701846 0.70554 0.692868 0.693095
          0.695057 0.684189 0.698759 0.688333 0.688687 0.710339
          0.696938 0.700191 0.70143 0.696067 0.707281 0.693428
          0.714071 0.709363 0.707867 0.709599 0.712648 0.70727
          0.709503 0.707203 0.719087 0.661788 0.6934 0.700313
          0.705303 0.708951 0.688027 0.69708 0.693371 0.690509
          0.696293 0.699117 0.69517 0.6941 0.700888 0.704079
          0.701116 0.698865 0.707041 0.680033 0.707245 0.708103
          0.688243 0.703752 0.702333 0.709244 0.715716 0.711643
          0.703198 0.695759 0.714551 0.705449 0.714009 0.709451
          0.674113 0.698458 0.69799 0.691352 0.710337 0.688401
          0.711702 0.703066 0.689972 0.705425 0.694737 0.697738
          0.700949 0.698927 0.696274 0.700329 0.68773 0.69353
          0.703199 0.698469 0.71484 0.702864 0.708584 0.717253
          0.700155 0.712031 0.705508 0.705667 0.712743 0.718164
          0.706692 0.708157 0.703459 0.662549 0.675026 0.689043
          0.682602 0.681091 0.690567 0.691982 0.701341 0.701977
          0.701962 0.704928 0.690195 0.700468 0.693265 0.709632
          0.690031 0.701128 0.703126 0.687494 0.702802 0.685163
          0.714136 0.693582 0.685232 0.69056 0.703149 0.691854
          0.673838 0.697816 0.698077 0.694402 0.698248 0.702994
          0.666369 0.699698 0.692566 0.699893 0.694607 0.70541
          0.707085 0.707455 0.700287 0.702629 0.69998 0.701596
          0.695483 0.7052 0.695424 0.702873 0.71334 0.707289
          0.683437 0.700737 0.691071 0.697365 0.685664 0.695826
          0.703013 0.699922 0.690425 0.696598 0.694526 0.69619
          0.699867 0.702534 0.702245 0.675381 0.696024 0.70338
          0.715044 0.699503 0.701688 0.684738 0.709282 0.713826
          0.7012 0.696349 0.686531 0.701579 0.714253 0.708272
          0.704667 0.681135 0.701751 0.687518 0.688699 0.697851
          0.684281 0.686519 0.678829 0.685163 0.6924 0.698351
          0.685882 0.693511 0.69784 0.688168 0.685438 0.695556
          0.648736 0.689254 0.704452 0.691323 0.680988 0.690588
          0.693456 0.686223 0.702836 0.702013 0.718848 0.70747
          0.701876 0.698463 0.696015 0.710782 0.69525 0.704123
          0.706936 0.694242 0.703013 0.714824 0.708801 0.701257
          0.722015 0.701879 0.711722 0.715342 0.718284 0.713978
          0.713798 0.70514 0.708067 0.680755 0.699331 0.699175
          0.713928 0.69737 0.700719 0.705318 0.717012 0.711046
          0.690898 0.708001 0.703465 0.698075 0.695685 0.71489
          0.704506 0.698217 0.704188 0.706538 0.696467 0.687578
          0.690229 0.680251 0.694366 0.689735 0.686343 0.684784
          0.688017 0.701616 0.694969 0.686777 0.682001 0.6926
          0.660437 0.693358 0.690961 0.692896 0.685979 0.693224
          0.685922 0.694981 0.688987 0.70764 0.702685 0.695714
          0.701488 0.687926 0.697613 0.700842 0.703586 0.712411
          0.696876 0.701532 0.692042 0.69926 0.685025 0.686024
          0.682724 0.691074 0.697358 0.707596 0.705108 0.709199
          0.703419 0.68136 0.712581 0.671952 0.686157 0.664596
          0.689886 0.703762 0.685327 0.696539 0.68956 0.7087
          0.693722 0.693905 0.70555 0.698249 0.703146 0.692201
          0.694279 0.699399 0.697755 0.703547 0.694052 0.703477
          0.704426 0.705708 0.709095 0.728821 0.706508 0.701237
          0.709485 0.70337 0.710875 0.709686 0.716315 0.719658
          0.649924 0.688186 0.688877 0.687351 0.68861 0.690322
          0.685863 0.701584 0.700982 0.69991 0.695117 0.698675
          0.700184 0.697623 0.701718 0.703838 0.706917 0.696205
          0.700693 0.698532 0.692302 0.6979 0.683523 0.688395
          0.709645 0.692735 0.686096 0.682105 0.696607 0.699152
          0.687174 0.698094 0.700879 0.666991 0.696552 0.704944
          0.698096 0.704825 0.698887 0.691523 0.689063 0.710545
          0.697727 0.702181 0.698226 0.687224 0.694103 0.689363
          0.698426 0.70422 0.700696 0.693723 0.682192 0.696072
          0.675688 0.679005 0.694006 0.689819 0.688399 0.687167
          0.699261 0.687888 0.690971 0.692176 0.682459 0.687446
          0.67106 0.69676 0.704163 0.691873 0.704629 0.6958
          0.714525 0.687787 0.691774 0.704158 0.695529 0.698711
          0.703815 0.688003 0.698217 0.707627 0.699356 0.714972
          0.698264 0.700015 0.692612 0.679809 0.691475 0.687326
          0.69372 0.689707 0.693104 0.698928 0.693231 0.700222
          0.69814 0.700199 0.692049 0.666028 0.701163 0.692377
          0.704405 0.697386 0.706242 0.711013 0.685988 0.710185
          0.696653 0.685022 0.719815 0.693431 0.694141 0.706594
          0.691799 0.711248 0.69352 0.714395 0.702861 0.713153
          0.706132 0.712796 0.701845 0.717603 0.701852 0.693294
          0.71388 0.707786 0.725635 0.701404 0.703866 0.702665
          0.685323 0.682186 0.704826 0.715159 0.697809 0.703979
          0.696255 0.699008 0.701925 0.699253 0.702149 0.702647
          0.700793 0.691496 0.680846 0.716961 0.705721 0.701134
          0.698201 0.703196 0.720959 0.690714 0.715284 0.706077
          0.714396 0.705437 0.705862 0.696346 0.69583 0.721181
          0.718177 0.726085 0.708091 0.683558 0.704818 0.692931
          0.700176 0.693807 0.698717 0.707038 0.694794 0.706172
          0.692005 0.707119 0.699853 0.71528 0.694706 0.706767
          0.710952 0.700747 0.696027 0.686201 0.706422 0.706341
          0.716804 0.703834 0.714053 0.719205 0.716592 0.713414
          0.717194 0.704206 0.70484 0.712704 0.7194 0.712323
          0.670011 0.696256 0.694999 0.707988 0.695822 0.705505
          0.703528 0.701015 0.706683 0.698819 0.698446 0.678788
          0.692734 0.690932 0.701964 0.710199 0.693277 0.701143
          0.690405 0.691376 0.684215 0.681618 0.70581 0.678137
          0.702156 0.694479 0.692125 0.694001 0.698709 0.692014
          0.686466 0.693949 0.690789 0.662707 0.701049 0.701543
          0.698393 0.703197 0.701642 0.709543 0.696074 0.708445
          0.696174 0.708849 0.699716 0.711783 0.70173 0.702083
          0.701174 0.705559 0.698953 0.713641 0.702632 0.691667
          0.68865 0.686415 0.685561 0.690499 0.699943 0.694657
          0.695862 0.702579 0.692454 0.685641 0.698199 0.697723
          0.667533 0.690742 0.704469 0.710794 0.71198 0.695168
          0.698074 0.691746 0.698214 0.714589 0.693031 0.699886
          0.690204 0.703553 0.698937 0.711846 0.707427 0.682026
          0.689487 0.702546 0.700836 0.688675 0.693173 0.686813
          0.702943 0.683313 0.687968 0.68257 0.685019 0.687584
          0.680208 0.688489 0.680721 0.661467 0.690505 0.691721
          0.68687 0.695726 0.693233 0.70121 0.689219 0.706192
          0.701289 0.687263 0.69659 0.69253 0.692708 0.69706
          0.694782 0.703334 0.688386 0.69097 0.703763 0.696608
          0.692088 0.688471 0.690707 0.695101 0.685377 0.685129
          0.686027 0.691455 0.713364 0.697576 0.677553 0.701143
          0.668513 0.702426 0.681384 0.690592 0.70097 0.698863
          0.712023 0.700315 0.709397 0.695352 0.679357 0.703619
          0.698795 0.697675 0.695525 0.698324 0.704299 0.692162
          0.697705 0.698757 0.682307 0.682941 0.685636 0.69707
          0.69331 0.677088 0.681924 0.70692 0.695345 0.690652
          0.696702 0.681023 0.680584 0.675104 0.69689 0.692517
          0.703262 0.698035 0.696328 0.704186 0.702539 0.709712
          0.692415 0.699156 0.706335 0.692774 0.681611 0.71987
          0.69842 0.702989 0.707633 0.694714 0.705841 0.691019
          0.693501 0.687377 0.687764 0.69576 0.679877 0.702894
          0.697528 0.688814 0.69526 0.679173 0.675825 0.685936
          0.656297 0.691604 0.691515 0.686725 0.689473 0.679126
          0.690976 0.696791 0.690633 0.708353 0.701145 0.698466
          0.707666 0.709939 0.709861 0.699745 0.69818 0.69588
          0.703809 0.691874 0.715372 0.713028 0.710043 0.713697
          0.716366 0.717401 0.695607 0.709341 0.714178 0.695869
          0.697683 0.700864 0.722824 0.656507 0.697987 0.69782
          0.684526 0.706151 0.70053 0.688799 0.689706 0.698406
          0.695397 0.69233 0.694847 0.698018 0.686328 0.696823
          0.684041 0.712575 0.7036 0.68719 0.698714 0.693957
          0.726124 0.708349 0.693302 0.708807 0.69116 0.712898
          0.714603 0.711058 0.71598 0.707009 0.711866 0.710916
          0.674632 0.701301 0.696366 0.711167 0.710291 0.704558
          0.70022 0.682256 0.717891 0.696862 0.697827 0.70416
          0.699061 0.693117 0.702012 0.703282 0.702244 0.703775
          0.700143 0.69741 0.705228 0.698888 0.705349 0.698144
          0.694175 0.707946 0.703163 0.705275 0.706209 0.715077
          0.721701 0.713085 0.707559 0.659772 0.687211 0.697636
          0.686163 0.687149 0.696517 0.691939 0.692162 0.685456
          0.713174 0.710011 0.689965 0.704621 0.700741 0.702798
          0.697161 0.697971 0.713108 0.679223 0.715814 0.69642
          0.6913 0.702709 0.701975 0.686436 0.702244 0.70096
          0.690671 0.690966 0.692108 0.686997 0.711453 0.704394
          0.659827 0.697686 0.686342 0.676934 0.687112 0.685969
          0.692116 0.690173 0.703683 0.701566 0.701146 0.696798
          0.703025 0.702966 0.697338 0.695103 0.691754 0.705473
          0.699998 0.708531 0.693946 0.690218 0.685015 0.683378
          0.692711 0.702284 0.697145 0.685216 0.70639 0.682187
          0.691104 0.683738 0.68374 0.643771 0.685217 0.703558
          0.695932 0.697836 0.677658 0.696232 0.698029 0.689138
          0.687144 0.695125 0.699344 0.708045 0.710632 0.714077
          0.705231 0.703362 0.696135 0.7033 0.691848 0.705609
          0.688309 0.700491 0.720613 0.706738 0.69819 0.704084
          0.693457 0.700783 0.696902 0.681752 0.687027 0.690678
          0.666202 0.690812 0.702082 0.702332 0.69517 0.696317
          0.698208 0.701303 0.701519 0.695313 0.711318 0.691014
          0.704992 0.699966 0.694831 0.690017 0.702438 0.696222
          0.710354 0.700321 0.680473 0.692553 0.678162 0.690005
          0.696537 0.688734 0.685073 0.700269 0.696794 0.69088
          0.681563 0.690931 0.687369 0.634965 0.673949 0.699667
          0.703138 0.680074 0.687176 0.694148 0.703929 0.702606
          0.693941 0.684139 0.708653 0.699829 0.699596 0.702065
          0.685573 0.69605 0.695057 0.703383 0.698666 0.696734
          0.707568 0.711797 0.706772 0.705992 0.709535 0.725759
          0.712707 0.716574 0.699945 0.717373 0.709229 0.725021
          0.676705 0.700198 0.70572 0.697216 0.694616 0.692989
          0.693046 0.699441 0.705309 0.69362 0.708936 0.700703
          0.691849 0.701827 0.693649 0.707539 0.705516 0.710193
          0.703534 0.710407 0.698625 0.698804 0.706308 0.70864
          0.700226 0.712056 0.68668 0.680915 0.691685 0.702937
          0.684334 0.694889 0.689874 0.66967 0.69663 0.700927
          0.694241 0.698184 0.693137 0.694494 0.695172 0.689761
          0.703861 0.692453 0.713603 0.70445 0.688188 0.714231
          0.698095 0.708544 0.688054 0.702332 0.712414 0.69484
          0.694893 0.68075 0.697369 0.686745 0.684125 0.689579
          0.689448 0.700366 0.7132 0.706542 0.687955 0.690255
          0.663213 0.706678 0.707581 0.707856 0.683898 0.69819
          0.70256 0.700177 0.702918 0.705732 0.709066 0.696717
          0.700054 0.710136 0.700267 0.715727 0.708477 0.691435
          0.701169 0.703197 0.694439 0.698592 0.700048 0.704696
          0.685952 0.711444 0.685023 0.697262 0.700298 0.68236
          0.692573 0.680211 0.696476 0.673392 0.716165 0.702733
          0.692433 0.700024 0.696867 0.702971 0.696848 0.710857
          0.702312 0.699796 0.700966 0.69891 0.681707 0.71226
          0.705086 0.712643 0.709002 0.693191 0.685601 0.707958
          0.708727 0.699064 0.719035 0.720581 0.708519 0.710498
          0.70725 0.709983 0.711779 0.703007 0.703513 0.715905
          0.666786 0.692878 0.703422 0.702182 0.706471 0.708744
          0.697298 0.703484 0.705859 0.717987 0.692727 0.698303
          0.688685 0.711651 0.690212 0.710416 0.705633 0.695737
          0.689372 0.68552 0.686581 0.686184 0.690691 0.685181
          0.701194 0.691956 0.68771 0.684922 0.691861 0.696729
          0.701019 0.691844 0.679733 0.671917 0.694621 0.689159
          0.696442 0.709065 0.702752 0.705373 0.695461 0.698441
          0.697436 0.696851 0.701141 0.707873 0.694793 0.703065
          0.695949 0.706666 0.711269 0.688548 0.708106 0.708462
          0.710234 0.712015 0.699678 0.717769 0.711578 0.697688
          0.710876 0.718656 0.704124 0.706059 0.709909 0.70867
          0.646529 0.687106 0.700363 0.690702 0.685792 0.692363
          0.701472 0.705888 0.700242 0.693581 0.695917 0.686317
          0.705457 0.709044 0.702193 0.701003 0.70403 0.703797
          0.706906 0.704766 0.713638 0.704985 0.708553 0.734396
          0.708084 0.707346 0.723716 0.722598 0.715091 0.6993
          0.71748 0.712449 0.700854 0.639714 0.686046 0.684691
          0.685201 0.694221 0.702905 0.699795 0.679857 0.692598
          0.724912 0.701642 0.68909 0.697476 0.701351 0.711429
          0.696474 0.709499 0.681387 0.697936 0.697984 0.708534
          0.716544 0.710542 0.699227 0.721755 0.714945 0.707709
          0.691488 0.712505 0.703411 0.712548 0.713688 0.721992
          0.661301 0.676214 0.684578 0.685462 0.678642 0.689158
          0.68655 0.698266 0.710276 0.69556 0.690545 0.712163
          0.701804 0.699128 0.694985 0.704028 0.700813 0.704091
          0.688378 0.710993 0.710227 0.720208 0.705543 0.699653
          0.702131 0.695942 0.703688 0.697602 0.710679 0.705162
          0.714858 0.716791 0.714032 0.68271 0.690071 0.691453
          0.698461 0.706947 0.697583 0.686761 0.7071 0.698389
          0.697859 0.685105 0.697724 0.70378 0.694359 0.70311
          0.705261 0.706271 0.707208 0.708169 0.700489 0.70149
          0.722715 0.709931 0.693947 0.710479 0.705896 0.718838
          0.704705 0.708047 0.721729 0.711794 0.697947 0.721339
          0.663389 0.682562 0.698187 0.696021 0.703085 0.712659
          0.684076 0.687169 0.688229 0.721143 0.717292 0.704193
          0.703797 0.685649 0.711429 0.697601 0.69617 0.699467
          0.698364 0.691046 0.699537 0.67796 0.705798 0.69931
          0.689363 0.694778 0.6904 0.684593 0.68868 0.696694
          0.703304 0.693342 0.700699 0.663357 0.698924 0.703503
          0.696141 0.702357 0.700778 0.716577 0.7144 0.693156
          0.690693 0.693329 0.697863 0.695401 0.717352 0.707252
          0.68812 0.692788 0.700259 0.701881 0.697175 0.699528
          0.692874 0.69274 0.690274 0.704446 0.709147 0.705333
          0.702725 0.699803 0.69226 0.689162 0.690919 0.686568
          0.663566 0.702136 0.688307 0.695391 0.68627 0.691227
          0.702785 0.699503 0.697344 0.689445 0.689279 0.683834
          0.705339 0.712253 0.706092 0.69262 0.697202 0.696841
          0.704208 0.690567 0.683041 0.694172 0.6957 0.695953
          0.702527 0.688617 0.695315 0.694006 0.705744 0.68317
          0.697166 0.700787 0.708835 0.642857 0.696186 0.690902
          0.707996 0.676942 0.689186 0.701572 0.69162 0.682848
          0.699491 0.707964 0.698666 0.706013 0.70999 0.710925
          0.690979 0.687841 0.706913 0.702802 0.694084 0.720232
          0.711129 0.705104 0.715379 0.715955 0.707749 0.707904
          0.708031 0.713266 0.697134 0.710876 0.711214 0.704395
          0.637184 0.683344 0.707938 0.699124 0.678637 0.671
          0.688183 0.698577 0.687324 0.703986 0.70485 0.70022
          0.706611 0.701365 0.700034 0.699485 0.701131 0.695027
          0.701266 0.700743 0.701142 0.693457 0.697017 0.70423
          0.677716 0.687205 0.701488 0.691049 0.687403 0.696325
          0.696911 0.691974 0.704163 0.673728 0.690261 0.68423
          0.687486 0.685257 0.708693 0.679559 0.667341 0.709947
          0.701323 0.691058 0.703919 0.691689 0.68854 0.698884
          0.704394 0.700498 0.699964 0.697247 0.701957 0.697605
          0.693649 0.699853 0.678545 0.697396 0.706991 0.699378
          0.675131 0.695494 0.691465 0.696862 0.714242 0.679004
          0.683741 0.702694 0.709401 0.684408 0.703177 0.703375
          0.720056 0.694911 0.712351 0.699192 0.695024 0.699905
          0.698204 0.6786 0.702104 0.703819 0.704198 0.689063
          0.704687 0.699964 0.701681 0.699183 0.703315 0.717044
          0.712089 0.713174 0.699194 0.706744 0.715982 0.719335
          0.711605 0.714345 0.715682 0.676082 0.708164 0.701685
          0.695749 0.700219 0.688131 0.687411 0.693187 0.714278
          0.696371 0.695287 0.703467 0.696323 0.687918 0.686154
          0.711545 0.697486 0.686612 0.687822 0.697363 0.704102
          0.707952 0.700759 0.70889 0.685701 0.701141 0.713675
          0.703916 0.703565 0.715939 0.705349 0.719684 0.70169
          0.638993 0.692731 0.696144 0.686575 0.69106 0.690301
          0.686162 0.701301 0.698578 0.701998 0.695221 0.711806
          0.699301 0.709585 0.707244 0.705546 0.7019 0.705638
          0.691202 0.699123 0.697788 0.693449 0.690723 0.709749
          0.702857 0.700662 0.708668 0.706384 0.699119 0.684751
          0.706749 0.7036 0.696504 0.677385 0.708842 0.708444
          0.70211 0.700522 0.705875 0.702314 0.703975 0.686521
          0.705465 0.70359 0.695946 0.68747 0.694984 0.702751
          0.698613 0.6871 0.691171 0.701906 0.692381 0.711229
          0.701131 0.704152 0.708986 0.710516 0.697121 0.698622
          0.713962 0.700707 0.698032 0.709901 0.714321 0.71129
          0.655402 0.687992 0.679937 0.689336 0.681452 0.6949
          0.688035 0.704479 0.710551 0.699398 0.706898 0.698777
          0.696282 0.702562 0.690065 0.712299 0.692145 0.698491
          0.696469 0.698203 0.71214 0.687824 0.687768 0.693179
          0.682499 0.682158 0.691466 0.695024 0.685179 0.685939
          0.692521 0.689011 0.699059 0.670747 0.703412 0.693982
          0.690812 0.710315 0.679736 0.693606 0.699388 0.697559
          0.715344 0.710688 0.700584 0.703344 0.700071 0.689714
          0.707918 0.699714 0.69843 0.703846 0.697849 0.696433
          0.689776 0.690144 0.697199 0.697971 0.698562 0.700953
          0.683487 0.695089 0.683459 0.682459 0.689037 0.683195
          0.681367 0.698881 0.694161 0.696306 0.697244 0.689003
          0.690943 0.69711 0.703036 0.706994 0.700707 0.69968
          0.694856 0.697873 0.698952 0.697357 0.690014 0.701842
          0.702522 0.704327 0.692589 0.697643 0.692008 0.694141
          0.695082 0.694742 0.699609 0.683867 0.686704 0.675091
          0.683319 0.699553 0.690004 0.689623 0.706496 0.69461
          0.70543 0.710369 0.674846 0.699762 0.70242 0.69596
          0.707909 0.703918 0.705317 0.7074 0.702716 0.708693
          0.70055 0.707756 0.690454 0.715129 0.691479 0.690253
          0.684266 0.675035 0.691374 0.698906 0.689582 0.682564
          0.68448 0.695071 0.702924 0.692746 0.682118 0.686526
          0.655654 0.687902 0.696904 0.687315 0.688213 0.686196
          0.701997 0.691447 0.683504 0.690608 0.712662 0.701451
          0.699291 0.697111 0.693818 0.695678 0.705445 0.702237
          0.708524 0.688896 0.720169 0.712094 0.71178 0.71153
          0.700814 0.729774 0.716901 0.725426 0.713141 0.701774
          0.726008 0.710929 0.711501 0.654319 0.689881 0.690207
          0.679861 0.674271 0.686507 0.712858 0.69815 0.696439
          0.697701 0.714777 0.69392 0.707036 0.716136 0.692447
          0.703013 0.694567 0.708279 0.701247 0.710924 0.691583
          0.684026 0.680516 0.692372 0.689486 0.69777 0.701967
          0.687868 0.69049 0.681871 0.694282 0.698999 0.698063
          0.666947 0.691856 0.681494 0.704813 0.690581 0.688739
          0.685997 0.678005 0.699513 0.706931 0.708886 0.701406
          0.707559 0.694571 0.70186 0.698414 0.701988 0.70264
          0.699153 0.694472 0.725667 0.714364 0.703242 0.727796
          0.712365 0.702906 0.705262 0.694717 0.718102 0.729685
          0.720867 0.70707 0.703948 0.636716 0.693306 0.71
          0.707412 0.698173 0.703018 0.712735 0.706015 0.687169
          0.715398 0.695373 0.707591 0.70891 0.708738 0.706968
          0.693258 0.705782 0.706173 0.705779 0.69594 0.708875
          0.70207 0.699167 0.707391 0.703634 0.703043 0.69777
          0.699429 0.689946 0.674905 0.67205 0.693011 0.687936
          0.665544 0.707405 0.694407 0.695352 0.700139 0.693706
          0.704805 0.702058 0.697906 0.701834 0.70458 0.703111
          0.709529 0.699878 0.715734 0.694539 0.696223 0.70605
          0.690901 0.701845 0.681875 0.702582 0.685335 0.69253
          0.690211 0.706022 0.677383 0.686638 0.692366 0.69835
          0.685149 0.704476 0.688389 0.659322 0.707294 0.701344
          0.690648 0.702305 0.70326 0.707215 0.694815 0.703258
          0.699884 0.70799 0.695933 0.698069 0.714587 0.685707
          0.708372 0.707681 0.696556 0.71416 0.712787 0.695158
          0.680962 0.698059 0.702276 0.704215 0.691686 0.69043
          0.693296 0.710711 0.681822 0.685726 0.694325 0.69354
          0.667938 0.704154 0.705382 0.695214 0.693202 0.695689
          0.691371 0.689383 0.686518 0.688144 0.689918 0.702839
          0.705367 0.693465 0.689798 0.707721 0.703592 0.690093
          0.700129 0.690909 0.69369 0.708206 0.709907 0.706789
          0.698052 0.711676 0.699391 0.71847 0.713772 0.704816
          0.692277 0.723268 0.713967 0.65834 0.680382 0.687626
          0.690462 0.697601 0.696004 0.691816 0.699696 0.696599
          0.70656 0.714079 0.688699 0.702614 0.682938 0.690691
          0.695061 0.70017 0.701265 0.697246 0.696535 0.688148
          0.683168 0.685689 0.685163 0.693222 0.698181 0.682569
          0.690492 0.69411 0.694067 0.698091 0.692408 0.68139
          0.683414 0.702225 0.686806 0.705522 0.695212 0.700455
          0.690292 0.690622 0.70191 0.717208 0.681086 0.717255
          0.708362 0.697929 0.702122 0.702933 0.712998 0.693031
          0.692117 0.692152 0.691341 0.676878 0.690931 0.693325
          0.693356 0.679763 0.699963 0.679769 0.686252 0.690746
          0.687665 0.704418 0.69977 0.657401 0.700322 0.692191
          0.70357 0.690881 0.69179 0.699061 0.703543 0.685316
          0.704557 0.703204 0.697619 0.702812 0.699446 0.719707
          0.686738 0.687216 0.709325 0.711046 0.702741 0.69698
          0.711934 0.709298 0.703346 0.703502 0.696855 0.705782
          0.702814 0.699965 0.700197 0.690854 0.710043 0.702613
          0.670434 0.701186 0.702057 0.692737 0.701866 0.690382
          0.706444 0.697759 0.703902 0.692831 0.705294 0.696646
          0.699935 0.716582 0.714318 0.688093 0.703275 0.703406
          0.685099 0.6945 0.720099 0.704953 0.707124 0.721579
          0.715588 0.700556 0.690157 0.713868 0.705752 0.689031
          0.71179 0.714481 0.716892 0.652448 0.686499 0.688157
          0.695497 0.691793 0.683636 0.687713 0.692008 0.711156
          0.700061 0.703859 0.688148 0.698719 0.704238 0.705068
          0.705292 0.685419 0.711675 0.687288 0.702492 0.721408
          0.720612 0.712197 0.712354 0.704298 0.69321 0.698284
          0.707654 0.704282 0.705568 0.712625 0.706084 0.710786
          0.654159 0.696806 0.688914 0.686216 0.684395 0.696502
          0.702821 0.695736 0.685699 0.68646 0.698441 0.701756
          0.700382 0.704489 0.700131 0.684835 0.682318 0.700325
          0.70207 0.702739 0.720843 0.718944 0.715059 0.719043
          0.710768 0.699965 0.717428 0.704231 0.703448 0.700207
          0.707242 0.711522 0.709883 0.672384 0.6994 0.684298
          0.698817 0.697772 0.698029 0.69332 0.695108 0.705836
          0.705642 0.696236 0.697661 0.695443 0.704254 0.693468
          0.6871 0.715052 0.698778 0.700919 0.699346 0.719108
          0.705905 0.704105 0.709124 0.710613 0.711051 0.72368
          0.696099 0.709105 0.706274 0.71212 0.731528 0.700578
          0.656617 0.691311 0.716891 0.702417 0.696363 0.689966
          0.701939 0.709252 0.708058 0.680678 0.701592 0.700935
          0.711188 0.685248 0.688951 0.696782 0.708677 0.693708
          0.707407 0.710624 0.708227 0.702278 0.699166 0.710677
          0.704442 0.707392 0.709044 0.719806 0.708824 0.693637
          0.698047 0.717849 0.696797 0.653774 0.686733 0.678077
          0.682159 0.690363 0.687386 0.698992 0.707073 0.694322
          0.706761 0.686916 0.709375 0.703022 0.684076 0.706514
          0.69386 0.694117 0.690166 0.698876 0.709925 0.700154
          0.703488 0.708258 0.69825 0.694652 0.70399 0.694559
          0.699444 0.684877 0.713978 0.706178 0.703799 0.719084
          0.671983 0.697912 0.706845 0.694488 0.704265 0.692024
          0.719629 0.694083 0.694252 0.705593 0.709917 0.689603
          0.713947 0.693941 0.701719 0.705085 0.686905 0.700147
          0.70002 0.683922 0.707409 0.698197 0.699214 0.711099
          0.701634 0.710752 0.720626 0.696917 0.706537 0.693297
          0.707567 0.713792 0.70693 0.655677 0.684346 0.692665
          0.695539 0.695204 0.699785 0.683496 0.699099 0.687658
          0.702058 0.699859 0.690382 0.703269 0.700977 0.695891
          0.711245 0.68787 0.694977 0.701258 0.68783 0.703854
          0.718296 0.692535 0.694413 0.712779 0.719036 0.708002
          0.71331 0.706765 0.699415 0.692312 0.702564 0.703723
          0.674346 0.703479 0.700771 0.686563 0.722581 0.701256
          0.698112 0.690465 0.702184 0.699442 0.726542 0.69917
          0.687686 0.684353 0.705612 0.692128 0.70448 0.70226
          0.705875 0.684985 0.699035 0.713428 0.710301 0.702532
          0.706752 0.70593 0.697858 0.711311 0.702386 0.709508
          0.721492 0.715081 0.717319 0.646188 0.693113 0.678761
          0.703119 0.683026 0.695235 0.697232 0.707009 0.698299
          0.696627 0.699399 0.690283 0.696998 0.693809 0.694097
          0.69482 0.68857 0.708223 0.706587 0.685991 0.693692
          0.697327 0.704978 0.708615 0.704087 0.696847 0.69508
          0.706362 0.703432 0.675713 0.692154 0.701848 0.700646
          0.665692 0.708087 0.694564 0.708544 0.703145 0.694465
          0.707474 0.702713 0.703471 0.702426 0.711273 0.687129
          0.70804 0.689243 0.705351 0.709309 0.706321 0.700837
          0.708332 0.701128 0.684748 0.706424 0.692142 0.699451
          0.696306 0.690795 0.69639 0.69433 0.690012 0.68641
          0.678609 0.698584 0.697255 0.692006 0.686908 0.693729
          0.710901 0.692401 0.702906 0.696005 0.704529 0.717132
          0.700647 0.692218 0.705848 0.68275 0.701181 0.697202
          0.697018 0.707473 0.695994 0.685271 0.703852 0.699861
          0.69015 0.689452 0.674685 0.688109 0.702307 0.685313
          0.681887 0.701274 0.703799 0.69143 0.693527 0.690382
          0.683413 0.693791 0.702469 0.688282 0.696661 0.707461
          0.707554 0.685913 0.70292 0.700603 0.700972 0.714474
          0.687369 0.692623 0.695655 0.709213 0.702921 0.695795
          0.693666 0.698184 0.698693 0.704603 0.702327 0.688177