<?xml version="1.0"?>
<VTKFile type="PolyData" version="0.1" byte_order="LittleEndian" header_type="UInt32" compressor="vtkZLibDataCompressor">
  <PolyData>
    <Piece NumberOfPoints="7920" NumberOfVerts="0" NumberOfLines="0" NumberOfStrips="0" NumberOfPolys="0">
      <PointData Scalars="Calcium Concentration">
        <DataArray type="Float32" Name="Calcium Concentration" format="ascii" RangeMin="0.47328200936317444" RangeMax="0.7358360290527344">
          0.496086 0.702489 0.699219 0.692945 0.701074 0.690649
          0.687818 0.709587 0.693885 0.69351 0.700898 0.708426
          0.706035 0.710002 0.694851 0.700404 0.689013 0.704578
          0.715971 0.695885 0.695725 0.677786 0.68975 0.685952
          0.683569 0.701533 0.692821 0.6965 0.691923 0.689054
          0.703555 0.687423 0.686209 0.504894 0.695487 0.699597
          0.692256 0.697483 0.69785 0.695572 0.700474 0.716093
          0.693411 0.694463 0.709201 0.695409 0.704298 0.706905
          0.694351 0.695636 0.700301 0.700123 0.698526 0.691734
          0.695652 0.689694 0.678199 0.67584 0.700881 0.700004
          0.68932 0.679689 0.699136 0.703959 0.684637 0.685954
          0.497893 0.686823 0.689105 0.673371 0.687291 0.681247
          0.694337 0.697564 0.693067 0.705954 0.688899 0.703648
          0.706286 0.705802 0.709135 0.704831 0.709895 0.720041
          0.722161 0.702452 0.725102 0.71093 0.717115 0.709593
          0.71139 0.71111 0.706566 0.702163 0.715122 0.704501
          0.708021 0.709471 0.709237 0.499733 0.69282 0.713738
          0.690831 0.698853 0.692751 0.710871 0.689768 0.708978
          0.705454 0.694325 0.696541 0.689104 0.705697 0.696006
          0.700513 0.700962 0.696262 0.705697 0.703395 0.704394
          0.690577 0.698941 0.693968 0.688692 0.713919 0.706316
          0.703355 0.703306 0.699852 0.702055 0.703259 0.697665
          0.496064 0.683564 0.688208 0.69869 0.682206 0.68726
          0.686337 0.682211 0.699879 0.7009 0.703608 0.699887
          0.702083 0.703364 0.689104 0.708929 0.703673 0.697723
          0.708128 0.69684 0.691586 0.689562 0.694009 0.682846
          0.68552 0.689781 0.687719 0.693249 0.687514 0.694986
          0.686374 0.698839 0.698384 0.514904 0.700198 0.690079
          0.689614 0.684192 0.71189 0.691378 0.698677 0.705181
          0.692742 0.681878 0.701177 0.7017 0.706498 0.702533
          0.701036 0.696288 0.688485 0.717746 0.700309 0.697176
          0.702062 0.700053 0.689868 0.702548 0.723384 0.710282
          0.698291 0.700639 0.709895 0.714904 0.709254 0.705269
          0.501339 0.685541 0.690199 0.683782 0.681475 0.687193
          0.680353 0.691427 0.713629 0.707629 0.686236 0.702569
          0.698594 0.714913 0.695933 0.702779 0.703203 0.69723
          0.706469 0.698056 0.709701 0.703959 0.693315 0.696637
          0.698761 0.717324 0.712886 0.710168 0.708693 0.696983
          0.719221 0.715063 0.709673 0.488669 0.685214 0.677932
          0.691611 0.683557 0.695907 0.680433 0.664186 0.701929
          0.69613 0.714115 0.713087 0.69802 0.707842 0.695601
          0.697342 0.70001 0.710002 0.708594 0.692696 0.693105
          0.685598 0.692925 0.679566 0.696381 0.698141 0.698788
          0.687939 0.689264 0.673854 0.70619 0.678143 0.682442
          0.484532 0.683388 0.685962 0.689838 0.680264 0.690041
          0.681978 0.701398 0.705406 0.697451 0.708878 0.711365
          0.704039 0.716164 0.702329 0.702679 0.709245 0.69407
          0.712733 0.686483 0.705009 0.704073 0.703539 0.706476
          0.711876 0.721323 0.701025 0.70606 0.700568 0.702187
          0.715318 0.708723 0.711237 0.506651 0.700494 0.702467
          0.701104 0.689697 0.695819 0.705275 0.699213 0.709512
          0.696173 0.717811 0.689565 0.692292 0.715344 0.691484
          0.694622 0.695066 0.704458 0.705138 0.706884 0.699512
          0.695872 0.694357 0.700087 0.715771 0.71894 0.704467
          0.710962 0.708929 0.698333 0.70482 0.693799 0.71062
          0.508855 0.70318 0.704375 0.69949 0.691586 0.710614
          0.705646 0.694787 0.703779 0.700042 0.70404 0.702532
          0.704904 0.699406 0.690156 0.705778 0.694179 0.705652
          0.696911 0.697561 0.699994 0.703338 0.712723 0.705136
          0.696276 0.718415 0.722402 0.702444 0.709985 0.704326
          0.718392 0.709489 0.722103 0.485776 0.687634 0.693302
          0.697223 0.675312 0.691746 0.692754 0.702924 0.6916
          0.694188 0.695047 0.702753 0.710448 0.702931 0.694981
          0.696085 0.704001 0.703116 0.70848 0.712216 0.696873
          0.694919 0.693626 0.68429 0.670085 0.691921 0.689496
          0.697338 0.680576 0.685449 0.692364 0.688569 0.704959
          0.507498 0.699912 0.688815 0.70936 0.687305 0.702592
          0.710649 0.702024 0.699322 0.692401 0.699393 0.699895
          0.702156 0.705491 0.706543 0.697042 0.699491 0.706523
          0.689427 0.70142 0.692345 0.695818 0.697779 0.682328
          0.697698 0.693742 0.67858 0.68718 0.710028 0.691198
          0.699337 0.691634 0.697078 0.505412 0.686485 0.684558
          0.694788 0.704491 0.692374 0.700942 0.692582 0.686526
          0.695385 0.708276 0.712231 0.705644 0.701262 0.710614
          0.70022 0.689163 0.701165 0.719201 0.694181 0.697825
          0.697523 0.677066 0.684359 0.690513 0.695805 0.682838
          0.696087 0.707897 0.689807 0.688909 0.693495 0.689256
          0.4935 0.684699 0.690262 0.694148 0.694835 0.683543
          0.69179 0.694476 0.686806 0.693692 0.696431 0.694132
          0.698821 0.70998 0.708627 0.686459 0.709323 0.704097
          0.691857 0.691243 0.71202 0.711811 0.713481 0.702995
          0.699683 0.709841 0.719978 0.710495 0.710776 0.717631
          0.709393 0.720759 0.72286 0.492173 0.688922 0.689948
          0.687853 0.709903 0.70934 0.693315 0.694862 0.689304
          0.699557 0.691122 0.697591 0.696862 0.711976 0.693891
          0.699037 0.685595 0.708264 0.698735 0.702765 0.687843
          0.67557 0.694229 0.683199 0.694593 0.691082 0.690749
          0.686647 0.694631 0.687073 0.689378 0.679633 0.690356
          0.505308 0.682584 0.689797 0.688278 0.688575 0.698089
          0.691225 0.699895 0.688766 0.689441 0.694757 0.706221
          0.704857 0.704839 0.708645 0.702941 0.694061 0.704354
          0.699028 0.689314 0.684481 0.689014 0.700291 0.692783
          0.697861 0.683071 0.699691 0.687803 0.691341 0.70217
          0.702365 0.69112 0.687049 0.486586 0.69125 0.675336
          0.672079 0.681603 0.686051 0.688038 0.710921 0.703898
          0.68776 0.700897 0.701456 0.694737 0.713736 0.703442
          0.709394 0.690311 0.701015 0.707966 0.690514 0.699415
          0.709561 0.709119 0.703518 0.714054 0.719615 0.697887
          0.703443 0.706967 0.700285 0.71123 0.703164 0.71151
          0.491138 0.685426 0.688138 0.682763 0.688679 0.678975
          0.678824 0.693701 0.682035 0.699775 0.693396 0.704183
          0.712135 0.695097 0.692841 0.693141 0.692621 0.706083
          0.705601 0.701221 0.687516 0.686292 0.679433 0.687409
          0.689896 0.700255 0.687484 0.684661 0.695883 0.689196
          0.705094 0.693376 0.708128 0.503938 0.69592 0.696831
          0.708307 0.706522 0.679854 0.71329 0.702137 0.698192
          0.695929 0.707606 0.708483 0.698866 0.705067 0.695391
          0.693522 0.684281 0.682669 0.70847 0.698646 0.693138
          0.695024 0.691378 0.686504 0.6937 0.683296 0.697347
          0.694728 0.687047 0.686609 0.695681 0.685322 0.682156
          0.50428 0.720877 0.697972 0.699713 0.705529 0.69431
          0.698759 0.704148 0.693991 0.697273 0.715774 0.697302
          0.696342 0.712711 0.688799 0.70095 0.703885 0.692008
          0.706478 0.692253 0.69229 0.696919 0.677345 0.694814
          0.69789 0.70709 0.681039 0.686721 0.693433 0.697782
          0.699285 0.680821 0.700426 0.510856 0.683708 0.695577
          0.683997 0.695016 0.69996 0.713985 0.687247 0.699721
          0.710148 0.696017 0.700204 0.704175 0.697738 0.711343
          0.698033 0.696054 0.696065 0.698166 0.700195 0.704297
          0.696292 0.718022 0.702485 0.695892 0.719895 0.707541
          0.7014 0.709283 0.712919 0.716698 0.705302 0.704822
          0.498912 0.712275 0.682952 0.718997 0.700429 0.69621
          0.70758 0.699436 0.693913 0.693865 0.706984 0.700086
          0.69051 0.72277 0.689189 0.709827 0.690279 0.702508
          0.709462 0.695188 0.71457 0.71351 0.708239 0.714377
          0.709361 0.71628 0.695218 0.706629 0.707286 0.711673
          0.722416 0.708806 0.715117 0.509823 0.710874 0.697868
          0.700862 0.700519 0.675867 0.703724 0.715111 0.697182
          0.696855 0.703856 0.684116 0.696925 0.714865 0.698674
          0.703425 0.697113 0.712633 0.686044 0.688019 0.705742
          0.700584 0.719119 0.710408 0.719215 0.725585 0.714068
          0.721681 0.724144 0.699381 0.716509 0.696112 0.701169
          0.490254 0.691403 0.705243 0.708331 0.707954 0.68613
          0.704539 0.705916 0.697508 0.71349 0.704009 0.698038
          0.701533 0.69952 0.705554 0.686478 0.702623 0.705498
          0.713954 0.702545 0.691646 0.691404 0.68323 0.700455
          0.692078 0.699471 0.684192 0.693036 0.695793 0.703546
          0.690849 0.683726 0.689637 0.501861 0.692174 0.701903
          0.693853 0.690588 0.695061 0.705603 0.69951 0.694781
          0.704071 0.695574 0.69104 0.706873 0.689045 0.708464
          0.699759 0.690284 0.698487 0.700034 0.700289 0.700733
          0.687582 0.684364 0.687187 0.697214 0.692753 0.695474
          0.695206 0.70571 0.71068 0.685734 0.693622 0.698441
          0.506835 0.707858 0.693783 0.694889 0.697472 0.70721
          0.701249 0.700263 0.69913 0.703697 0.698485 0.697326
          0.705572 0.720653 0.685468 0.699162 0.699561 0.695744
          0.701088 0.695548 0.693103 0.688755 0.683418 0.683728
          0.697515 0.691754 0.688082 0.69042 0.680958 0.685549
          0.695928 0.681552 0.686939 0.499431 0.697823 0.685615
          0.688995 0.698149 0.702766 0.692491 0.696534 0.699359
          0.692303 0.700803 0.692903 0.702251 0.696336 0.705189
          0.701873 0.699277 0.692435 0.716545 0.69402 0.691404
          0.692521 0.681026 0.683559 0.687235 0.687129 0.686168
          0.689196 0.6862 0.699641 0.690482 0.696049 0.686265
          0.498821 0.708386 0.691053 0.710318 0.701181 0.700902
          0.702777 0.701995 0.677649 0.716294 0.688443 0.68679
          0.712725 0.693638 0.710039 0.69739 0.695922 0.712204
          0.708319 0.700918 0.697714 0.68403 0.679773 0.693715
          0.683741 0.688765 0.688381 0.692555 0.698977 0.683122
          0.686679 0.701261 0.697675 0.506096 0.702686 0.691158
          0.692967 0.707338 0.691942 0.715009 0.684715 0.708971
          0.708766 0.70374 0.694924 0.691966 0.724357 0.68796
          0.698766 0.691421 0.692699 0.714373 0.687284 0.68849
          0.695865 0.679098 0.702198 0.690039 0.705059 0.694684
          0.698823 0.706159 0.701816 0.701745 0.682411 0.681151
          0.501322 0.68827 0.701145 0.691473 0.685148 0.685769
          0.695893 0.705193 0.675942 0.70239 0.696378 0.694836
          0.697225 0.693288 0.696153 0.706335 0.700804 0.703719
          0.698325 0.700943 0.699812 0.710297 0.711022 0.708684
          0.718933 0.706179 0.715319 0.698651 0.700984 0.714441
          0.698477 0.719351 0.701575 0.490135 0.681447 0.690893
          0.689326 0.695729 0.69484 0.705274 0.700536 0.683137
          0.68953 0.698765 0.708959 0.699662 0.709975 0.706208
          0.697666 0.688421 0.697484 0.703447 0.702488 0.71606
          0.733047 0.697722 0.695825 0.708905 0.716499 0.703189
          0.705446 0.703211 0.714593 0.719334 0.71407 0.710607
          0.502825 0.711077 0.683758 0.69387 0.704824 0.696514
          0.717979 0.680051 0.699864 0.707976 0.71865 0.685511
          0.703103 0.713231 0.699666 0.693028 0.693356 0.689808
          0.707277 0.691194 0.701426 0.70464 0.709012 0.698654
          0.698357 0.715781 0.704797 0.71401 0.702485 0.714479
          0.718847 0.722395 0.715693 0.485325 0.677745 0.679668
          0.698162 0.676691 0.692095 0.699438 0.69513 0.692196
          0.705747 0.698807 0.693206 0.699557 0.709493 0.690062
          0.693885 0.695699 0.700891 0.709812 0.70004 0.693403
          0.699421 0.690889 0.698792 0.698617 0.696258 0.68945
          0.694056 0.683235 0.686857 0.692512 0.691514 0.691928
          0.5121 0.695964 0.700441 0.679006 0.672136 0.698225
          0.698373 0.689402 0.702872 0.701658 0.69588 0.700426
          0.704466 0.696531 0.706156 0.701117 0.706762 0.708922
          0.697232 0.704399 0.698891 0.695134 0.684411 0.697924
          0.681931 0.686974 0.700113 0.693353 0.691233 0.694625
          0.687542 0.698401 0.690238 0.492617 0.673013 0.699586
          0.700451 0.681992 0.686894 0.692771 0.698384 0.701153
          0.702206 0.681377 0.691925 0.697622 0.683865 0.688863
          0.698985 0.700264 0.702428 0.70129 0.694175 0.700869
          0.705097 0.694812 0.711557 0.704044 0.692831 0.698372
          0.698143 0.697125 0.709004 0.699448 0.676462 0.695962
          0.490364 0.686553 0.702385 0.705087 0.697397 0.701151
          0.699674 0.705581 0.691818 0.704356 0.69204 0.715317
          0.700085 0.695297 0.701075 0.697339 0.70432 0.702235
          0.703554 0.711326 0.696951 0.697558 0.709771 0.681482
          0.700216 0.694224 0.684379 0.69051 0.700657 0.699887
          0.68309 0.685574 0.686411 0.485792 0.662259 0.696389
          0.687404 0.688766 0.696191 0.687976 0.692526 0.693197
          0.699212 0.694001 0.706782 0.704593 0.691784 0.698395
          0.71299 0.70523 0.696271 0.694942 0.689219 0.705383
          0.698882 0.718674 0.699423 0.704231 0.706838 0.722965
          0.719313 0.713764 0.706885 0.707921 0.707441 0.719119
          0.50895 0.702397 0.700812 0.711613 0.69318 0.701036
          0.701843 0.695947 0.704251 0.696537 0.694658 0.698824
          0.705423 0.699545 0.69036 0.706199 0.697138 0.698642
          0.700623 0.701321 0.704527 0.699402 0.692604 0.704497
          0.703933 0.686881 0.703872 0.693978 0.69244 0.704546
          0.692739 0.696387 0.676621 0.496582 0.70215 0.693343
          0.71638 0.704098 0.701614 0.699571 0.695725 0.712776
          0.702551 0.704876 0.687869 0.707631 0.700059 0.713133
          0.700354 0.686212 0.694938 0.706945 0.698318 0.697982
          0.709241 0.694943 0.693501 0.697081 0.702126 0.679446
          0.67696 0.692381 0.6955 0.71249 0.694408 0.687163
          0.496057 0.690754 0.698167 0.695162 0.69896 0.689158
          0.693832 0.696791 0.708092 0.70007 0.690267 0.699882
          0.719184 0.691049 0.692581 0.702889 0.697613 0.696866
          0.692978 0.715094 0.696779 0.693341 0.699779 0.709678
          0.683652 0.677769 0.697326 0.700261 0.699101 0.696135
          0.690957 0.688853 0.689093 0.508917 0.722298 0.70704
          0.695006 0.685504 0.710444 0.708049 0.698228 0.688232
          0.700894 0.705815 0.681355 0.695695 0.710419 0.681992
          0.698593 0.692911 0.690441 0.702235 0.703282 0.710865
          0.70564 0.705267 0.707098 0.698505 0.723998 0.705661
          0.701789 0.710881 0.714783 0.701187 0.70342 0.701756
          0.491356 0.698855 0.693855 0.697906 0.704659 0.691117
          0.701551 0.708607 0.704641 0.683793 0.701477 0.700834
          0.684685 0.713685 0.697394 0.685439 0.700997 0.701649
          0.713251 0.689147 0.695996 0.695042 0.690866 0.698114
          0.690141 0.710059 0.690957 0.688248 0.680797 0.70407
          0.69826 0.694622 0.690033 0.503355 0.70472 0.713784
          0.704453 0.690421 0.686287 0.699554 0.711724 0.700759
          0.693476 0.701186 0.692117 0.700737 0.702722 0.698895
          0.694049 0.693426 0.702104 0.70859 0.699645 0.705997
          0.697988 0.704389 0.703788 0.704358 0.725105 0.709823
          0.719664 0.704386 0.708665 0.708695 0.702487 0.715529
          0.491226 0.661593 0.696939 0.703425 0.691285 0.698145
          0.684261 0.699873 0.703879 0.70277 0.679869 0.688942
          0.681588 0.686375 0.700477 0.692632 0.69873 0.703422
          0.698393 0.688982 0.721895 0.699517 0.710104 0.730052
          0.710973 0.710245 0.707076 0.722432 0.722222 0.712596
          0.707988 0.716532 0.721513 0.491682 0.681848 0.678868
          0.682752 0.683101 0.689647 0.700792 0.692155 0.685772
          0.704253 0.700598 0.69465 0.71165 0.68915 0.707917
          0.700982 0.702597 0.705107 0.698125 0.693914 0.712057
          0.707541 0.707992 0.692051 0.704507 0.717072 0.709526
          0.705926 0.70487 0.713375 0.699334 0.715931 0.712073
          0.48167 0.68602 0.677222 0.685328 0.691065 0.688087
          0.696094 0.687631 0.693869 0.715465 0.692345 0.693905
          0.699162 0.712353 0.703738 0.70984 0.684308 0.700994
          0.714538 0.696664 0.719476 0.720242 0.722175 0.707424
          0.688987 0.700409 0.702028 0.702368 0.719475 0.706779
          0.703938 0.710972 0.706465 0.519483 0.716725 0.705009
          0.711356 0.708061 0.714343 0.695782 0.694801 0.711859
          0.689234 0.712589 0.689054 0.708078 0.715189 0.693668
          0.70572 0.679773 0.691358 0.692277 0.697437 0.699304
          0.706218 0.706253 0.703249 0.694627 0.711701 0.702324
          0.709544 0.705476 0.710556 0.707297 0.706103 0.697484
          0.483528 0.676306 0.70289 0.690881 0.684775 0.683998
          0.693621 0.677878 0.681439 0.692022 0.696361 0.688697
          0.702659 0.708571 0.716972 0.700745 0.688111 0.693416
          0.705482 0.712323 0.684124 0.697971 0.687706 0.691936
          0.699315 0.702136 0.682165 0.684923 0.687375 0.694227
          0.695652 0.695772 0.690892 0.510355 0.689471 0.696636
          0.701786 0.691551 0.705764 0.697473 0.694729 0.691889
          0.71078 0.70958 0.691624 0.71114 0.685414 0.707359
          0.688257 0.703324 0.701037 0.708543 0.710444 0.692964
          0.698651 0.696758 0.687008 0.698339 0.693924 0.71037
          0.708226 0.702026 0.690152 0.705945 0.703647 0.698601
          0.506774 0.681896 0.699536 0.691505 0.681593 0.693695
          0.685839 0.706242 0.701981 0.696819 0.680934 0.68669
          0.69805 0.707434 0.705404 0.704235 0.696926 0.702821
          0.694297 0.71045 0.698297 0.692724 0.699205 0.695801
          0.69434 0.690674 0.684291 0.691233 0.690625 0.695806
          0.684188 0.694686 0.697037 0.495603 0.678548 0.695621
          0.695819 0.682551 0.689041 0.671822 0.695317 0.702091
          0.711617 0.695248 0.696049 0.716612 0.687749 0.705517
          0.706911 0.693342 0.691221 0.698657 0.707977 0.711633
          0.710908 0.705081 0.722384 0.726043 0.710476 0.720384
          0.710811 0.709018 0.704174 0.700597 0.712384 0.720825
          0.487742 0.675636 0.690197 0.683944 0.694317 0.682957
          0.681179 0.701109 0.695578 0.695495 0.698493 0.692255
          0.702011 0.685549 0.694628 0.709763 0.694859 0.698961
          0.69674 0.701174 0.703183 0.708659 0.693868 0.696858
          0.693966 0.687201 0.691892 0.701608 0.693037 0.688948
          0.690253 0.693035 0.714433 0.491107 0.686829 0.692437
          0.681017 0.68553 0.684099 0.70689 0.679553 0.682369
          0.698532 0.713306 0.697557 0.691476 0.707925 0.693348
          0.689775 0.697759 0.696543 0.704288 0.705869 0.709752
          0.689878 0.70027 0.685197 0.683069 0.703585 0.697287
          0.689154 0.691933 0.687317 0.6873 0.686864 0.696894
          0.498254 0.700682 0.677989 0.703931 0.702411 0.704178
          0.694483 0.685609 0.696813 0.69309 0.70475 0.710958
          0.705816 0.718544 0.69786 0.711433 0.694579 0.696829
          0.715862 0.68824 0.702982 0.713746 0.689943 0.705856
          0.716463 0.71921 0.714278 0.711418 0.707419 0.710982
          0.7315 0.710203 0.715937 0.507594 0.699716 0.683627
          0.711624 0.702151 0.71467 0.7092 0.697717 0.712843
          0.687088 0.708672 0.708173 0.702379 0.705364 0.692898
          0.701003 0.707386 0.689887 0.711234 0.693003 0.717825
          0.69836 0.693523 0.699169 0.719531 0.708164 0.690552
          0.709977 0.714018 0.705616 0.720829 0.715734 0.709625
          0.490036 0.677093 0.697843 0.700975 0.689521 0.678578
          0.687091 0.691995 0.692347 0.70976 0.693304 0.693339
          0.706103 0.67754 0.703482 0.698075 0.698917 0.701582
          0.69633 0.696594 0.712439 0.711829 0.684564 0.700414
          0.699368 0.6889 0.709673 0.705531 0.69832 0.707516
          0.693271 0.706336 0.707984 0.507746 0.693521 0.691322
          0.69215 0.707551 0.69996 0.68571 0.716285 0.691374
          0.690964 0.693762 0.711493 0.689613 0.700273 0.700483
          0.694966 0.693295 0.711285 0.703668 0.70194 0.709558
          0.705128 0.707049 0.69737 0.716076 0.708477 0.70682
          0.704047 0.701186 0.709992 0.703017 0.706488 0.704966
          0.497019 0.689858 0.691836 0.677492 0.685636 0.679714
          0.690701 0.704908 0.681937 0.694982 0.710306 0.694432
          0.702517 0.698871 0.706263 0.701614 0.689793 0.708749
          0.693723 0.713457 0.690267 0.688332 0.682057 0.684003
          0.698334 0.671932 0.690501 0.688439 0.6894 0.689884
          0.687606 0.69373 0.694184 0.492972 0.695833 0.694065
          0.68568 0.715613 0.701682 0.712173 0.69555 0.704717
          0.704545 0.71072 0.697058 0.69854 0.708636 0.700774
          0.701618 0.701769 0.703579 0.695578 0.706742 0.683543
          0.685087 0.681112 0.687195 0.690843 0.699407 0.698093
          0.688628 0.696598 0.689198 0.692219 0.692187 0.698678
          0.514031 0.704618 0.700301 0.691237 0.714181 0.699828
          0.708905 0.705198 0.690266 0.703587 0.701665 0.70947
          0.693031 0.697816 0.71258 0.700717 0.697089 0.70965
          0.710452 0.700906 0.705174 0.684602 0.680715 0.688779
          0.693078 0.703719 0.683743 0.688275 0.687663 0.685354
          0.69904 0.710269 0.689702 0.512392 0.710118 0.689945
          0.698251 0.709957 0.691696 0.703661 0.699101 0.700291
          0.696869 0.697205 0.702639 0.697258 0.707989 0.69957
          0.70285 0.701479 0.689495 0.705451 0.693586 0.697166
          0.669588 0.678833 0.698623 0.683319 0.708254 0.676029
          0.708519 0.692679 0.685581 0.707555 0.676406 0.694568
          0.485188 0.667818 0.701917 0.694985 0.68321 0.683237
          0.68433 0.701232 0.689994 0.699137 0.699496 0.696277
          0.72309 0.690551 0.704044 0.698619 0.694554 0.68817
          0.695059 0.703446 0.695335 0.710254 0.720308 0.714692
          0.709837 0.706359 0.716054 0.722774 0.71067 0.708287
          0.712105 0.718412 0.712983 0.484451 0.681564 0.695772
          0.693891 0.670182 0.679285 0.689412 0.70913 0.696849
          0.707554 0.685519 0.699272 0.695991 0.699519 0.696936
          0.696394 0.693589 0.710585 0.691061 0.699656 0.693757
          0.698455 0.699089 0.694534 0.709052 0.686764 0.691409
          0.689197 0.682341 0.6959 0.696183 0.696166 0.680528
          0.493889 0.68604 0.686688 0.68902 0.703596 0.689088
          0.690192 0.701093 0.683953 0.701915 0.70382 0.701612
          0.697389 0.708095 0.692258 0.708482 0.695437 0.697456
          0.718051 0.690997 0.71544 0.722193 0.712395 0.71375
          0.718925 0.732412 0.710783 0.710897 0.710284 0.714076
          0.723478 0.714076 0.703072 0.494985 0.686273 0.702147
          0.693261 0.709197 0.701309 0.685054 0.707032 0.693318
          0.710804 0.691933 0.700085 0.689615 0.690078 0.697575
          0.694632 0.698986 0.714035 0.683066 0.703997 0.692143
          0.689841 0.700154 0.707762 0.694981 0.692094 0.695009
          0.711688 0.686355 0.696032 0.678791 0.700459 0.690361
          0.518532 0.698899 0.713344 0.70117 0.702202 0.691663
          0.71113 0.695148 0.700775 0.711662 0.69732 0.69627
          0.706012 0.695859 0.705994 0.708085 0.687139 0.712309
          0.703549 0.693249 0.694464 0.690537 0.699609 0.698063
          0.699617 0.692285 0.698907 0.696837 0.683397 0.706602
          0.70933 0.690221 0.704587 0.504214 0.682502 0.698712
          0.699712 0.701951 0.716235 0.682379 0.711483 0.690853
          0.709143 0.698219 0.704965 0.711682 0.689121 0.71013
          0.68592 0.709093 0.697167 0.697288 0.710557 0.716961
          0.689616 0.68415 0.696195 0.695971 0.700027 0.704432
          0.699507 0.691789 0.709012 0.68951 0.693935 0.703828
          0.509226 0.694815 0.694696 0.699235 0.692627 0.703357
          0.69297 0.692474 0.682193 0.677481 0.691132 0.695152
          0.709872 0.708616 0.691725 0.682847 0.710611 0.710599
          0.695443 0.685539 0.697177 0.694212 0.70857 0.704536
          0.710413 0.697402 0.681469 0.705515 0.715454 0.71357
          0.694628 0.69716 0.716125 0.497624 0.69023 0.67246
          0.68682 0.694194 0.680554 0.69275 0.680561 0.712131
          0.689745 0.697367 0.69155 0.701606 0.720907 0.688316
          0.714492 0.689543 0.700903 0.708114 0.698692 0.688376
          0.692996 0.686209 0.681824 0.697821 0.699694 0.686152
          0.681071 0.686476 0.697843 0.687941 0.686442 0.693008
          0.508057 0.713592 0.701694 0.713552 0.705498 0.700273
          0.697119 0.699078 0.702205 0.691002 0.70506 0.686041
          0.697419 0.711777 0.703912 0.688176 0.688459 0.709507
          0.703526 0.715288 0.685677 0.683337 0.68877 0.694388
          0.696069 0.692859 0.680144 0.698604 0.690581 0.6846
          0.697449 0.702923 0.69018 0.511912 0.682511 0.713908
          0.714649 0.679071 0.687944 0.697485 0.69953 0.691029
          0.698203 0.692382 0.710784 0.712192 0.69852 0.702935
          0.718345 0.698884 0.687946 0.703239 0.701459 0.695359
          0.701906 0.695528 0.699227 0.713024 0.683347 0.69837
          0.697883 0.70026 0.708598 0.700349 0.704414 0.70171
          0.502566 0.693739 0.713634 0.69721 0.687514 0.70672
          0.701714 0.693335 0.689317 0.705846 0.690948 0.703163
          0.694539 0.691635 0.705449 0.684664 0.71408 0.709199
          0.690399 0.688983 0.700423 0.717588 0.702826 0.719529
          0.717388 0.698923 0.714032 0.711621 0.72224 0.715526
          0.700534 0.716046 0.710669 0.485414 0.681419 0.688986
          0.6993 0.685451 0.683258 0.689655 0.690659 0.70224
          0.699998 0.688997 0.7003 0.721007 0.685969 0.696786
          0.695147 0.704133 0.691451 0.684915 0.70538 0.706908
          0.70868 0.708359 0.722811 0.715017 0.706208 0.713241
          0.707597 0.695872 0.701944 0.712304 0.717841 0.714056
          0.489731 0.681155 0.693241 0.677701 0.704216 0.689589
          0.6954 0.698599 0.696678 0.675753 0.684914 0.698829
          0.702941 0.698546 0.719552 0.696432 0.697068 0.706255
          0.712753 0.696611 0.707571 0.718348 0.715165 0.706823
          0.716238 0.700378 0.708313 0.699061 0.726155 0.725323
          0.70452 0.713654 0.717216 0.505596 0.696314 0.701662
          0.700974 0.711037 0.698588 0.706568 0.702871 0.69164
          0.708832 0.703061 0.70157 0.708589 0.698592 0.703034
          0.692428 0.693235 0.71344 0.706886 0.694577 0.697712
          0.698551 0.700503 0.701328 0.713236 0.71203 0.705999
          0.714349 0.703784 0.710461 0.700776 0.715102 0.708348
          0.512863 0.673511 0.698711 0.68788 0.707988 0.682929
          0.70649 0.701311 0.706412 0.683927 0.687738 0.718446
          0.706822 0.700393 0.711642 0.702188 0.698998 0.706942
          0.70105 0.688766 0.709731 0.71814 0.710965 0.703827
          0.707021 0.708248 0.715091 0.710733 0.711118 0.705257
          0.690143 0.702567 0.698114 0.50704 0.68297 0.675896
          0.682016 0.700531 0.682622 0.697336 0.702281 0.690882
          0.711001 0.700025 0.702517 0.68457 0.71148 0.701161
          0.715388 0.682302 0.711699 0.695989 0.705566 0.713136
          0.711705 0.711112 0.695235 0.717649 0.703268 0.6902
          0.69755 0.709848 0.706148 0.719232 0.69554 0.709649
          0.516293 0.68775 0.694934 0.700131 0.70504 0.700059
          0.68716 0.709134 0.694195 0.703859 0.692594 0.702509
          0.684617 0.714294 0.695461 0.700462 0.696352 0.707025
          0.701228 0.701936 0.717804 0.711959 0.712199 0.704288
          0.723619 0.698165 0.713451 0.71705 0.704984 0.713135
          0.6957 0.714474 0.709528 0.490671 0.669589 0.682368
          0.699147 0.680816 0.703903 0.691123 0.68159 0.691371
          0.705549 0.700475 0.705803 0.700751 0.711101 0.70162
          0.695128 0.712417 0.699792 0.707598 0.698271 0.722718
          0.717272 0.712852 0.712966 0.717718 0.711023 0.709921
          0.711435 0.705718 0.707407 0.708749 0.705366 0.703898
          0.495451 0.717402 0.685852 0.706381 0.701311 0.691664
          0.707301 0.692785 0.672707 0.705992 0.698 0.710888
          0.701825 0.708082 0.691416 0.721699 0.694714 0.692657
          0.697896 0.695415 0.695605 0.700443 0.71636 0.70284
          0.722728 0.719252 0.691389 0.704596 0.701467 0.698198
          0.716519 0.724175 0.720204 0.503013 0.671821 0.709485
          0.698387 0.689156 0.688992 0.689002 0.689772 0.705951
          0.698206 0.695543 0.693917 0.698244 0.6817 0.704737
          0.705558 0.703301 0.695988 0.692684 0.706491 0.695427
          0.692712 0.710156 0.69583 0.701411 0.689297 0.714863
          0.700833 0.698327 0.718828 0.6938 0.701841 0.702776
          0.514306 0.679981 0.709328 0.695258 0.699269 0.709498
          0.695143 0.701696 0.684918 0.697348 0.695382 0.701696
          0.693886 0.703629 0.706784 0.692182 0.695577 0.694721
          0.695062 0.712267 0.696117 0.703088 0.697096 0.715604
          0.699362 0.683834 0.685271 0.69585 0.692594 0.697574
          0.694246 0.697943 0.685754 0.504801 0.719315 0.708245
          0.698995 0.697168 0.696819 0.703344 0.694812 0.685808
          0.69166 0.701482 0.706514 0.704266 0.694877 0.704002
          0.689554 0.701798 0.688317 0.712653 0.701179 0.69375
          0.706591 0.692803 0.683934 0.690335 0.705028 0.693031
          0.702217 0.691722 0.695889 0.691427 0.699992 0.693519
          0.49219 0.714672 0.68976 0.706604 0.703466 0.684855
          0.703135 0.708937 0.700679 0.691197 0.701158 0.705041
          0.71032 0.708507 0.688963 0.703831 0.708549 0.697979
          0.712403 0.699849 0.70175 0.693685 0.71156 0.681864