<?xml version="1.0"?>
<VTKFile type="PolyData" version="0.1" byte_order="LittleEndian" header_type="UInt32" compressor="vtkZLibDataCompressor">
  <PolyData>
    <Piece NumberOfPoints="8160" NumberOfVerts="0" NumberOfLines="0" NumberOfStrips="0" NumberOfPolys="0">
      <PointData Scalars="Calcium Concentration">
        <DataArray type="Float32" Name="Calcium Concentration" format="ascii" RangeMin="0.009907489642500877" RangeMax="0.7402099967002869">
          0.0118792 0.674012 0.693847 0.70026 0.720022 0.702568
          0.69792 0.702315 0.689748 0.709494 0.69624 0.706843
          0.697887 0.700274 0.706212 0.699371 0.694877 0.711307
          0.68887 0.687412 0.713152 0.684596 0.685518 0.681008
          0.68758 0.690202 0.693571 0.704702 0.698908 0.690262
          0.700931 0.69951 0.698465 0.686413 0.011895 0.684412
          0.705191 0.704996 0.706315 0.701031 0.701266 0.69532
          0.698724 0.70025 0.70459 0.698003 0.705587 0.708346
          0.703032 0.709733 0.694759 0.704358 0.70689 0.684095
          0.694594 0.689509 0.684081 0.67123 0.677728 0.691242
          0.685083 0.695165 0.687119 0.690529 0.699987 0.683109
          0.690471 0.697078 0.0138817 0.652455 0.686603 0.68046
          0.686572 0.692988 0.685207 0.692923 0.692556 0.705739
          0.690682 0.69822 0.699996 0.716019 0.706364 0.713607
          0.709932 0.717401 0.708465 0.695851 0.719589 0.70771
          0.711878 0.718758 0.700203 0.711099 0.705217 0.715186
          0.701952 0.707818 0.701881 0.706586 0.709027 0.712921
          0.0138799 0.679379 0.690571 0.691827 0.711183 0.699165
          0.70071 0.697662 0.705536 0.714264 0.700777 0.694188
          0.706779 0.708727 0.69461 0.701727 0.696524 0.704827
          0.709235 0.694105 0.707582 0.696173 0.686784 0.6888
          0.693312 0.697216 0.692968 0.699772 0.700863 0.69635
          0.697449 0.696894 0.694288 0.69404 0.0099083 0.657529
          0.68738 0.683672 0.683971 0.683354 0.689422 0.680776
          0.703379 0.701645 0.69087 0.70619 0.700507 0.709767
          0.690164 0.707025 0.694661 0.699496 0.70915 0.6916
          0.711525 0.691622 0.700768 0.677876 0.694068 0.682107
          0.690188 0.690584 0.699382 0.682994 0.693893 0.697634
          0.69843 0.698244 0.013873 0.674191 0.698909 0.70001
          0.706953 0.703575 0.699574 0.707525 0.681716 0.706251
          0.703907 0.704468 0.691455 0.696447 0.694168 0.699366
          0.690714 0.684996 0.694644 0.708547 0.692384 0.713984
          0.698021 0.704748 0.705895 0.717703 0.700139 0.70674
          0.698745 0.701538 0.713992 0.704693 0.696523 0.707512
          0.0138694 0.656451 0.687204 0.678459 0.681703 0.694532
          0.689196 0.683146 0.685113 0.720952 0.696239 0.691263
          0.70902 0.693097 0.702818 0.688705 0.699295 0.702139
          0.693322 0.691786 0.689903 0.707371 0.693252 0.70562
          0.707689 0.719609 0.721361 0.710237 0.72185 0.715317
          0.715065 0.710326 0.709698 0.706585 0.0118847 0.666447
          0.68779 0.699517 0.680071 0.705284 0.691475 0.684175
          0.684387 0.703909 0.719991 0.692261 0.688404 0.698984
          0.692041 0.713468 0.702175 0.698175 0.690063 0.691097
          0.696335 0.704892 0.686072 0.680967 0.682594 0.694611
          0.69794 0.686112 0.679049 0.68351 0.685263 0.685274
          0.674159 0.695744 0.011879 0.666999 0.683815 0.6851
          0.680088 0.682309 0.68826 0.690356 0.697837 0.706547
          0.702024 0.692534 0.692728 0.698381 0.682752 0.701944
          0.690319 0.686791 0.708377 0.702001 0.703064 0.702355
          0.691626 0.711494 0.694819 0.717798 0.707783 0.710139
          0.711662 0.710693 0.707526 0.705956 0.707444 0.720327
          0.0119044 0.669784 0.691086 0.697356 0.711638 0.711168
          0.691772 0.692535 0.69874 0.688497 0.699417 0.696414
          0.694711 0.697304 0.701857 0.700812 0.700136 0.699834
          0.711192 0.684535 0.705611 0.706541 0.686411 0.702449
          0.705071 0.707378 0.711525 0.71554 0.703791 0.697157
          0.714214 0.702078 0.715567 0.709555 0.00991086 0.675351
          0.699563 0.702866 0.693006 0.71427 0.688214 0.70788
          0.703763 0.691783 0.702116 0.688555 0.697043 0.701722
          0.696314 0.695685 0.697561 0.689763 0.693163 0.705733
          0.703256 0.708749 0.701608 0.708695 0.71881 0.69528
          0.706183 0.70593 0.709934 0.716441 0.71366 0.705229
          0.710483 0.705875 0.0158536 0.666857 0.674205 0.68904
          0.681171 0.68362 0.690462 0.693636 0.700273 0.698951
          0.700912 0.701782 0.693907 0.697609 0.692908 0.711754
          0.691814 0.698077 0.705657 0.689369 0.695946 0.685503
          0.710034 0.691241 0.685612 0.696104 0.700191 0.695456
          0.675036 0.695163 0.69528 0.695737 0.695574 0.701654
          0.0118855 0.668294 0.700639 0.690494 0.698993 0.690415
          0.707756 0.705643 0.705877 0.699244 0.699482 0.704712
          0.704376 0.693006 0.70193 0.694784 0.701673 0.713134
          0.711385 0.689603 0.697958 0.6909 0.7005 0.689673
          0.691381 0.698026 0.69518 0.68859 0.695901 0.697779
          0.699339 0.695253 0.699489 0.701138 0.0119032 0.680479
          0.695299 0.70216 0.714658 0.696683 0.700499 0.687039
          0.705605 0.711819 0.700299 0.690056 0.684907 0.706142
          0.719723 0.704616 0.699509 0.681728 0.702462 0.687669
          0.690546 0.695106 0.682849 0.682893 0.679785 0.689223
          0.688346 0.691881 0.689919 0.697046 0.700815 0.686303
          0.6896 0.69701 0.00990749 0.650191 0.68723 0.705081
          0.68727 0.67963 0.690339 0.693113 0.682519 0.705563
          0.693226 0.714396 0.704089 0.706294 0.697721 0.69345
          0.706911 0.69664 0.708384 0.707055 0.699417 0.707569
          0.714651 0.707164 0.700393 0.719178 0.700831 0.707859
          0.718819 0.72145 0.709977 0.715342 0.711358 0.704425
          0.0138682 0.687145 0.700202 0.694282 0.709934 0.698701
          0.701603 0.705897 0.71639 0.709198 0.690681 0.708282
          0.706023 0.697282 0.700908 0.710782 0.703163 0.697329
          0.698902 0.706906 0.695732 0.689706 0.692166 0.679038
          0.692018 0.693621 0.688471 0.686992 0.682373 0.706373
          0.690801 0.6851 0.680574 0.690556 0.0118847 0.664812
          0.694894 0.685049 0.694423 0.684224 0.694767 0.688189
          0.696257 0.690825 0.706234 0.703536 0.697014 0.696645
          0.686089 0.693087 0.695913 0.704265 0.710492 0.69806
          0.698543 0.693727 0.69644 0.68923 0.68631 0.681445
          0.690911 0.700449 0.709813 0.70563 0.70923 0.70597
          0.683932 0.71243 0.013885 0.67719 0.682587 0.672158
          0.687895 0.702511 0.681801 0.701641 0.685538 0.707013
          0.691315 0.68966 0.698443 0.697469 0.70564 0.695796
          0.69381 0.698471 0.696957 0.7002 0.691695 0.706069
          0.706785 0.706188 0.711163 0.723357 0.706876 0.698353
          0.711462 0.706187 0.708904 0.702016 0.712067 0.719031
          0.00990947 0.65707 0.686164 0.69082 0.687556 0.686633
          0.693955 0.687897 0.702397 0.696278 0.697136 0.696566
          0.695995 0.702967 0.693184 0.700686 0.700654 0.705226
          0.69742 0.705281 0.695767 0.693983 0.695164 0.689712
          0.694152 0.70794 0.686748 0.692189 0.684455 0.694123
          0.694442 0.685448 0.701057 0.697963 0.00991047 0.667125
          0.690124 0.705413 0.697362 0.699517 0.700024 0.693263
          0.692777 0.70667 0.695077 0.69916 0.693668 0.687331
          0.701242 0.69122 0.697642 0.706563 0.701559 0.693142
          0.684631 0.697271 0.676793 0.681824 0.693629 0.687952
          0.688518 0.683461 0.69837 0.687958 0.686797 0.686126
          0.683223 0.68564 0.00990947 0.682174 0.696044 0.69896
          0.691863 0.703274 0.695138 0.714291 0.685969 0.693296
          0.702689 0.691201 0.69792 0.70621 0.688115 0.695718
          0.706005 0.704166 0.712761 0.693633 0.697078 0.694219
          0.676826 0.689378 0.689444 0.689585 0.691651 0.685029
          0.696261 0.692982 0.695442 0.697503 0.699181 0.693773
          0.0118788 0.666083 0.698173 0.690117 0.705062 0.696723
          0.708491 0.708928 0.686127 0.708512 0.701746 0.689176
          0.71715 0.693054 0.689912 0.701335 0.691515 0.711056
          0.693156 0.715965 0.699813 0.705336 0.706655 0.712724
          0.706679 0.717178 0.704441 0.694863 0.717487 0.706297
          0.728169 0.700311 0.698795 0.703229 0.0118847 0.691339
          0.684668 0.705362 0.712774 0.698979 0.700773 0.693754
          0.699889 0.700825 0.698293 0.702898 0.699645 0.697835
          0.689413 0.685378 0.710913 0.700572 0.698204 0.699197
          0.705816 0.721941 0.684864 0.713018 0.710425 0.714172
          0.707959 0.706102 0.695648 0.699109 0.71645 0.719617
          0.728496 0.710197 0.0118978 0.682116 0.701374 0.694465
          0.706895 0.695328 0.697779 0.699726 0.696192 0.704668
          0.69161 0.703658 0.693267 0.713045 0.694259 0.703249
          0.706984 0.707254 0.699119 0.686376 0.710668 0.704812
          0.718203 0.702593 0.708073 0.718667 0.71425 0.713233
          0.714764 0.700939 0.705258 0.712587 0.714926 0.717928
          0.0118921 0.671624 0.697491 0.698375 0.708187 0.695272
          0.705963 0.708072 0.697913 0.705061 0.699942 0.701478
          0.683504 0.698053 0.69457 0.70475 0.714021 0.687094
          0.696357 0.692136 0.692984 0.678978 0.678439 0.704469
          0.679157 0.702859 0.690255 0.691926 0.693563 0.703635
          0.69173 0.680999 0.689706 0.692669 0.0118944 0.661173
          0.703696 0.702384 0.703215 0.703806 0.700493 0.707742
          0.69347 0.708594 0.689781 0.714784 0.702572 0.713655
          0.700799 0.70285 0.696287 0.709775 0.699849 0.713467
          0.711042 0.689476 0.68669 0.688517 0.689772 0.688327
          0.697052 0.69615 0.697131 0.699513 0.694105 0.680075
          0.695342 0.702863 0.0118913 0.673251 0.688729 0.703053
          0.709123 0.713863 0.698608 0.699263 0.697158 0.697402
          0.72014 0.694539 0.704756 0.693968 0.700368 0.698187
          0.711845 0.713458 0.684565 0.691345 0.703239 0.703692
          0.686697 0.696817 0.690719 0.701651 0.685742 0.684291
          0.681162 0.689159 0.685699 0.67899 0.690345 0.67952
          0.00990927 0.661949 0.688409 0.689553 0.689028 0.691273
          0.689111 0.698216 0.691011 0.704699 0.696451 0.687403
          0.690159 0.688299 0.688621 0.700305 0.692313 0.696225
          0.690194 0.69087 0.702553 0.697849 0.691735 0.692281
          0.694367 0.696414 0.68766 0.681633 0.684381 0.689346
          0.709238 0.694897 0.678437 0.696201 0.0119062 0.676028
          0.701229 0.681952 0.692417 0.699699 0.696071 0.708147
          0.704945 0.711351 0.692873 0.684105 0.706223 0.707529
          0.702798 0.694956 0.691842 0.704913 0.693849 0.698713
          0.699745 0.684758 0.683406 0.682082 0.700143 0.689158
          0.681849 0.682524 0.710956 0.694692 0.686738 0.695968
          0.689383 0.681275 0.00990948 0.676302 0.698186 0.696035
          0.704059 0.695292 0.699589 0.699053 0.697527 0.702061
          0.692179 0.694492 0.701095 0.698081 0.682364 0.722832
          0.691904 0.698 0.705948 0.692321 0.702391 0.685183
          0.691265 0.689521 0.687921 0.695131 0.680681 0.697837
          0.696811 0.690902 0.694736 0.68184 0.673273 0.690021
          0.0119048 0.661045 0.691477 0.689276 0.690583 0.691306
          0.681764 0.698562 0.690253 0.690432 0.698966 0.703965
          0.701422 0.70618 0.708202 0.709818 0.696827 0.691598
          0.697162 0.698515 0.697487 0.716825 0.71101 0.719796
          0.711655 0.715894 0.720786 0.695086 0.711448 0.71398
          0.693563 0.698645 0.703772 0.719924 0.00990908 0.665211
          0.695343 0.696949 0.686695 0.704605 0.707201 0.68685
          0.693524 0.693802 0.695068 0.692187 0.696225 0.699103
          0.686493 0.703763 0.686414 0.708549 0.700288 0.68547
          0.701799 0.693657 0.72473 0.708611 0.69302 0.714659
          0.689177 0.710839 0.718107 0.711039 0.715546 0.707425
          0.711805 0.709245 0.00990908 0.673903 0.698385 0.701367
          0.711075 0.702679 0.703245 0.697315 0.686583 0.719204
          0.692227 0.695296 0.706595 0.700147 0.694593 0.702848
          0.700137 0.702963 0.708118 0.695305 0.702484 0.70385
          0.696009 0.702083 0.699399 0.699421 0.706333 0.700052
          0.705775 0.704918 0.7186 0.715029 0.713058 0.709927
          0.0118857 0.662205 0.685558 0.704392 0.682519 0.685386
          0.697796 0.695479 0.688018 0.683711 0.711081 0.710196
          0.693773 0.703374 0.701677 0.70352 0.698213 0.695263
          0.709015 0.678203 0.715487 0.695855 0.687208 0.703437
          0.702753 0.69053 0.697396 0.696233 0.688676 0.694656
          0.693784 0.683422 0.705693 0.697325 0.00991047 0.664276
          0.696809 0.688487 0.674234 0.683407 0.684286 0.688026
          0.69594 0.702335 0.702425 0.70963 0.696151 0.697978
          0.701722 0.706108 0.696314 0.693442 0.702178 0.708482
          0.708923 0.695426 0.690165 0.685468 0.683893 0.690571
          0.701137 0.700394 0.685616 0.706909 0.686563 0.694689
          0.68227 0.686122 0.0118839 0.645698 0.683701 0.702287
          0.699273 0.693404 0.674804 0.691811 0.695191 0.68338
          0.687303 0.694526 0.69647 0.706517 0.712661 0.711928
          0.703858 0.705836 0.699339 0.705993 0.691491 0.709905
          0.692036 0.697625 0.716023 0.701274 0.695411 0.708392
          0.696958 0.703608 0.69624 0.684053 0.687083 0.692326
          0.0138715 0.671982 0.694532 0.704761 0.706734 0.698568
          0.699431 0.695575 0.703934 0.700316 0.696775 0.713185
          0.690906 0.699727 0.696937 0.700133 0.689832 0.703153
          0.701149 0.710297 0.701185 0.683056 0.696104 0.680948
          0.691822 0.69388 0.681116 0.685356 0.701393 0.696174
          0.690721 0.678289 0.694607 0.689648 0.0138606 0.641577
          0.67531 0.696863 0.705854 0.675038 0.685167 0.693786
          0.702633 0.699508 0.695368 0.692255 0.705059 0.696879
          0.696819 0.706691 0.687617 0.695249 0.698351 0.706018
          0.697911 0.697971 0.707919 0.711877 0.705345 0.706535
          0.713549 0.718825 0.706881 0.714165 0.700958 0.714965
          0.70935 0.723877 0.0138718 0.685477 0.701223 0.70424
          0.700268 0.69601 0.692793 0.698396 0.696567 0.703963
          0.691229 0.710999 0.701623 0.693569 0.698839 0.697203
          0.707871 0.70026 0.715963 0.704133 0.710253 0.697832
          0.695918 0.704964 0.708888 0.701343 0.714004 0.686875
          0.675904 0.697258 0.699762 0.680807 0.692413 0.693646
          0.0118828 0.673362 0.699784 0.696194 0.699663 0.701164
          0.694524 0.697954 0.696535 0.689737 0.696806 0.694088
          0.711526 0.703119 0.688356 0.715939 0.689666 0.710609
          0.684175 0.699256 0.712254 0.700177 0.694501 0.681429
          0.696662 0.682986 0.69228 0.683881 0.69119 0.701326
          0.709258 0.701211 0.686193 0.690171 0.0118824 0.673116
          0.70692 0.709668 0.706275 0.686328 0.70304 0.699481
          0.708702 0.697819 0.700391 0.709319 0.69224 0.704755
          0.704575 0.703037 0.709587 0.710582 0.68744 0.707677
          0.701914 0.693951 0.695737 0.699183 0.697546 0.684452
          0.70949 0.69111 0.698357 0.69739 0.682824 0.692177
          0.680941 0.692068 0.0119044 0.676684 0.713832 0.703386
          0.688299 0.699087 0.699994 0.705628 0.696273 0.705201
          0.706902 0.696922 0.702025 0.696193 0.689952 0.719787
          0.697959 0.710534 0.707197 0.694675 0.693589 0.709977
          0.706975 0.696233 0.718453 0.717785 0.706937 0.710502
          0.707481 0.708097 0.711795 0.701748 0.696509 0.711724
          0.0118788 0.670707 0.69459 0.700291 0.697251 0.706952
          0.710802 0.69265 0.700293 0.70442 0.715656 0.694314
          0.697583 0.692529 0.711562 0.692124 0.70475 0.702219
          0.698998 0.691199 0.687754 0.690749 0.688154 0.692419
          0.685403 0.702144 0.691724 0.681981 0.68723 0.689674
          0.692273 0.697955 0.687796 0.680535 0.0118917 0.675219
          0.690252 0.68722 0.699532 0.709403 0.703465 0.707828
          0.694701 0.697544 0.698455 0.700052 0.70024 0.708345
          0.69244 0.701906 0.69911 0.706891 0.707355 0.686598
          0.706495 0.706856 0.70653 0.712004 0.702473 0.711628
          0.713524 0.691307 0.714691 0.718055 0.702827 0.708502
          0.707915 0.706916 0.00990869 0.648108 0.68894 0.697333
          0.696375 0.686122 0.693718 0.704237 0.70433 0.695432
          0.693335 0.693562 0.688547 0.702004 0.705413 0.706812
          0.701721 0.708368 0.702455 0.707187 0.70724 0.711602
          0.709404 0.705052 0.730507 0.706531 0.713382 0.730353
          0.729178 0.716783 0.696384 0.722655 0.710456 0.701823
          0.00990988 0.647724 0.682413 0.684966 0.685415 0.689993
          0.695937 0.695035 0.684554 0.694285 0.725623 0.702411
          0.690951 0.700642 0.704304 0.709641 0.697803 0.715314
          0.683831 0.698926 0.699004 0.708775 0.714075 0.710624
          0.708056 0.718841 0.714594 0.709913 0.693306 0.714164
          0.702098 0.710597 0.709584 0.717301 0.00991027 0.661894
          0.675497 0.682966 0.683924 0.675656 0.692827 0.684853
          0.699289 0.712244 0.697034 0.696045 0.710141 0.700771
          0.698296 0.694426 0.700734 0.701693 0.702554 0.690307
          0.714872 0.710584 0.713681 0.704243 0.700672 0.697176
          0.693378 0.702506 0.704531 0.712645 0.703796 0.714375
          0.718171 0.71191 0.011883 0.688971 0.691856 0.687403
          0.697691 0.705375 0.700584 0.688788 0.705546 0.695548
          0.700936 0.681708 0.695164 0.702523 0.692142 0.705772
          0.700093 0.708662 0.703732 0.704667 0.703393 0.700549
          0.71977 0.704241 0.695433 0.716209 0.70451 0.716347
          0.709002 0.706518 0.720872 0.709856 0.699072 0.722368
          0.0118845 0.661725 0.683217 0.701203 0.697256 0.696144
          0.710523 0.684467 0.68542 0.688331 0.712677 0.714773
          0.706765 0.700554 0.685958 0.7095 0.696907 0.703046
          0.700391 0.699383 0.692675 0.692855 0.680672 0.702393
          0.698538 0.691265 0.692424 0.68845 0.681086 0.696422
          0.693981 0.696194 0.692904 0.699554 0.00991047 0.667519
          0.699993 0.706141 0.695436 0.697399 0.697871 0.714088
          0.708282 0.694705 0.686769 0.694857 0.697191 0.689116
          0.711175 0.707453 0.69015 0.694414 0.701114 0.702764
          0.698485 0.698617 0.692376 0.690624 0.68827 0.704983
          0.705438 0.70008 0.701652 0.693198 0.695658 0.687181
          0.686896 0.688636 0.00990908 0.663783 0.702899 0.688417
          0.687209 0.682786 0.689076 0.699689 0.696507 0.696566
          0.683651 0.689312 0.6881 0.705797 0.714258 0.706486
          0.690399 0.698246 0.696104 0.708591 0.688483 0.685549
          0.697453 0.696958 0.697083 0.703334 0.692433 0.692792
          0.691715 0.70807 0.681763 0.694644 0.697852 0.706973
          0.0119058 0.648634 0.695482 0.688807 0.704439 0.672127
          0.687192 0.70427 0.693005 0.679589 0.694817 0.708232
          0.697823 0.702667 0.710099 0.710916 0.690827 0.68974
          0.711211 0.701712 0.695512 0.725078 0.711131 0.711486
          0.718704 0.715561 0.706147 0.702482 0.706202 0.711313
          0.692585 0.707123 0.713087 0.701019 0.011896 0.641684
          0.683774 0.70425 0.696444 0.679574 0.670641 0.692136
          0.699579 0.683657 0.702602 0.705314 0.695417 0.708949
          0.706074 0.700887 0.704145 0.698003 0.698365 0.705901
          0.70345 0.700135 0.694707 0.700141 0.70487 0.674932
          0.691064 0.700372 0.692947 0.685644 0.693832 0.698167
          0.689787 0.704636 0.0158585 0.678898 0.695812 0.682793
          0.687653 0.6895 0.70704 0.682312 0.667201 0.710106
          0.709758 0.68905 0.708349 0.691475 0.68867 0.700105
          0.699177 0.703265 0.702922 0.698512 0.702686 0.696916
          0.697013 0.693233 0.675682 0.696708 0.707501 0.694791
          0.676527 0.700671 0.689192 0.69251 0.71201 0.675996
          0.0118919 0.67843 0.709139 0.713251 0.684734 0.701966
          0.700009 0.721257 0.700083 0.710231 0.696356 0.690794
          0.696939 0.701361 0.679483 0.697181 0.704478 0.701173
          0.696603 0.701449 0.698814 0.696799 0.696454 0.703926
          0.720448 0.704305 0.715005 0.703979 0.708984 0.71188
          0.71861 0.709719 0.713936 0.719055 0.0118855 0.679217
          0.706642 0.702439 0.697061 0.695339 0.686186 0.685749
          0.694662 0.710147 0.695678 0.688976 0.70611 0.697458
          0.688025 0.690241 0.709713 0.698543 0.692576 0.693564
          0.698563 0.704712 0.710133 0.705579 0.709144 0.687839
          0.703929 0.713503 0.70263 0.700382 0.719572 0.703931
          0.71702 0.698667 0.00990908 0.645332 0.694336 0.691778
          0.688788 0.688941 0.686206 0.686451 0.698324 0.69397
          0.702898 0.690858 0.709835 0.694603 0.704017 0.709378
          0.702206 0.702715 0.700432 0.692797 0.702083 0.700832
          0.689261 0.696286 0.707932 0.703599 0.701588 0.712866
          0.701084 0.700086 0.681274 0.705284 0.700487 0.695878
          0.0118934 0.684205 0.707206 0.706688 0.706694 0.699515
          0.71403 0.699292 0.702631 0.679158 0.705894 0.708033
          0.693539 0.693162 0.694493 0.699749 0.695793 0.685435
          0.69291 0.700666 0.698015 0.711216 0.698152 0.702804
          0.709237 0.704817 0.69645 0.699753 0.713666 0.697833
          0.697093 0.707989 0.713907 0.707452 0.00990927 0.662197
          0.684114 0.678757 0.689207 0.68192 0.692462 0.689793
          0.706973 0.710439 0.700492 0.703447 0.69607 0.703345
          0.705381 0.691848 0.712199 0.693649 0.70348 0.68628
          0.69733 0.71003 0.683956 0.687948 0.698586 0.679393
          0.68475 0.68741 0.696382 0.689377 0.686102 0.688436
          0.687053 0.700162 0.0118992 0.674039 0.70218 0.695515
          0.69063 0.708311 0.684291 0.695245 0.694536 0.691043
          0.718759 0.708891 0.695804 0.698193 0.703003 0.689506
          0.704412 0.696874 0.699443 0.702591 0.69711 0.69387
          0.691609 0.693768 0.698388 0.699192 0.697785 0.699897
          0.680049 0.696456 0.680097 0.681181 0.689026 0.68187
          0.00990809 0.685819 0.701838 0.691743 0.695856 0.698408
          0.689025 0.692818 0.698158 0.707635 0.705443 0.701709
          0.696714 0.698251 0.701014 0.696159 0.69644 0.693631
          0.698744 0.701305 0.699126 0.690444 0.691058 0.69763
          0.69183 0.690683 0.694306 0.702591 0.680436 0.690652
          0.679949 0.679983 0.70037 0.691792 0.0119054 0.689636
          0.705149 0.694008 0.705922 0.710373 0.677731 0.70078
          0.705181 0.695442 0.708236 0.704602 0.709683 0.70769
          0.701588 0.710846 0.699635 0.700313 0.697925 0.714694
          0.691177 0.686467 0.686681 0.674437 0.68744 0.696007
          0.685835 0.682866 0.686822 0.688927 0.701682 0.688699
          0.682657 0.694269 0.00990947 0.660497 0.686055 0.694318
          0.687274 0.688147 0.684598 0.702675 0.696932 0.682006
          0.692325 0.716402 0.704245 0.702143 0.700258 0.697145
          0.693174 0.702043 0.700947 0.704886 0.690797 0.721242
          0.71774 0.707812 0.715552 0.697665 0.726318 0.716401
          0.725936 0.713012 0.700657 0.720838 0.711062 0.703891
          0.0118845 0.65718 0.685937 0.686177 0.682597 0.681294
          0.68854 0.712773 0.693371 0.695662 0.693202 0.706871
          0.689701 0.70547 0.711916 0.690096 0.699934 0.69206
          0.708405 0.692467 0.707196 0.693391 0.6901 0.681282
          0.694012 0.683685 0.69132 0.70468 0.684098 0.688423
          0.688231 0.690066 0.694327 0.695514 0.00990908 0.666947
          0.687774 0.684051 0.701594 0.68847 0.688778 0.68819
          0.686499 0.694744 0.70168 0.707258 0.698425 0.702084
          0.692187 0.702648 0.693772 0.700809 0.703308 0.694394
          0.695871 0.7206 0.717866 0.701993 0.732081 0.716182
          0.699825 0.705859 0.690229 0.715703 0.728202 0.716395
          0.707335 0.704763 0.0119008 0.641117 0.690963 0.7081
          0.703873 0.695563 0.701735 0.716506 0.708205 0.693155
          0.70543 0.696765 0.704144 0.703398 0.707146 0.70732
          0.692877 0.704239 0.700806 0.704356 0.693422 0.705246
          0.70281 0.702044 0.707654 0.700542 0.703685 0.693264
          0.694604 0.693781 0.674099 0.675371 0.6889 0.684255
          0.0118982 0.669567 0.707852 0.697821 0.698659 0.699135
          0.697038 0.70732 0.700809 0.69336 0.696917 0.703197
          0.703696 0.703763 0.700993 0.715437 0.691998 0.697376
          0.700673 0.686802 0.708381 0.680597 0.703107 0.687523
          0.694154 0.688121 0.706396 0.680189 0.684922 0.69594
          0.703267 0.683466 0.703266 0.682744 0.011905 0.659955
          0.707575 0.69647 0.688526 0.699222 0.704135 0.709607
          0.696074 0.703902 0.70085 0.706412 0.691668 0.700911
          0.716367 0.691562 0.704787 0.711766 0.701542 0.71393
          0.706884 0.696419 0.687425 0.699299 0.701007 0.701027
          0.700945 0.690309 0.690927 0.714643 0.676585 0.687968
          0.69001 0.695 0.0118794 0.67168 0.700882 0.702056
          0.692763 0.690918 0.695035 0.687294 0.691222 0.684767
          0.694088 0.68404 0.709381 0.705735 0.693244 0.685917
          0.705969 0.704217 0.695487 0.695236 0.698317 0.69719
          0.706547 0.712058 0.707326 0.695325 0.711629 0.702393
          0.717811 0.715549 0.709048 0.691995 0.71838 0.715844
          0.0119078 0.664824 0.679292 0.68389 0.688356 0.696916
          0.695399 0.691646 0.698926 0.696082 0.710896 0.71201
          0.686693 0.711001 0.685378 0.696323 0.692703 0.704978
          0.700271 0.692652 0.695841 0.692175 0.683527 0.685938
          0.681699 0.687009 0.697382 0.681206 0.692411 0.6938
          0.689671 0.695284 0.691981 0.6839 0.0138688 0.687797
          0.699247 0.688889 0.706053 0.694744 0.701362 0.690269
          0.696049 0.698867 0.712834 0.67997 0.720677 0.710483
          0.695295 0.702994 0.699828 0.716751 0.694621 0.69381
          0.693702 0.69496 0.677964 0.686897 0.69871 0.696848
          0.682617 0.693271 0.676709 0.684546 0.696457 0.687738
          0.697356 0.70654 0.00990987 0.66213 0.703149 0.695895
          0.70423 0.690526 0.693359 0.700221 0.702113 0.691404
          0.707038 0.700092 0.700808 0.707313 0.700492 0.718897
          0.683097 0.689224 0.707535 0.712802 0.701583 0.694358
          0.717563 0.705679 0.706028 0.692679 0.696112 0.702455
          0.699721 0.706677 0.697222 0.690611 0.706336 0.699487
          0.0118923 0.675868 0.705857 0.700937 0.690598 0.698801
          0.703692 0.708664 0.697102 0.704603 0.688695 0.707797
          0.697904 0.702748 0.714396 0.710187 0.688245 0.70588
          0.707838 0.685545 0.699563 0.715596 0.703405 0.709413
          0.716962 0.715022 0.70337 0.695761 0.711626 0.706346
          0.68896 0.711776 0.716032 0.720363 0.0118911 0.651677
          0.684821 0.688154 0.696858 0.693242 0.686028 0.682161
          0.691611 0.715049 0.698925 0.70057 0.693905 0.697722
          0.704784 0.701706 0.711366 0.685604 0.707763 0.689388
          0.710765 0.71863 0.719834 0.714178 0.710262 0.704864
          0.696841 0.697556 0.70414 0.705045 0.707967 0.710652
          0.70638 0.714728 0.0118921 0.653347 0.696212 0.692579
          0.686537 0.688494 0.697781 0.705355 0.689317 0.683884
          0.686692 0.695718 0.706549 0.701272 0.703102 0.697323
          0.68523 0.682878 0.699291 0.702772 0.709262 0.72391
          0.721914 0.710933 0.714646 0.708813 0.700872 0.713079
          0.708669 0.70411 0.699237 0.703652 0.707777 0.709941
          0.0138687 0.675576 0.694714 0.686562 0.703756 0.691123
          0.697263 0.692904 0.696684 0.706344 0.704156 0.697449
          0.698684 0.696778 0.701081 0.698694 0.679583 0.712557
          0.699666 0.701584 0.70232 0.716611 0.704443 0.70286
          0.709305 0.706937 0.711088 0.726346 0.697346 0.705521
          0.704839 0.712095 0.72965 0.70159 0.0118794 0.663281
          0.691079 0.71251 0.703227 0.70135 0.68989 0.698925
          0.705451 0.70468 0.681434 0.704318 0.701833 0.703508
          0.685476 0.687151 0.690443 0.701258 0.695097 0.709635
          0.710615 0.708467 0.701164 0.696335 0.71262 0.707022
          0.702091 0.70729 0.7152 0.709027 0.694961 0.697434
          0.71352 0.701833 0.0119002 0.662569 0.68509 0.675156
          0.684477 0.688275 0.68934 0.700023 0.703579 0.697714
          0.70719 0.688997 0.71338 0.699716 0.68449 0.706912
          0.689645 0.693547 0.693714 0.69788 0.706209 0.701099
          0.704144 0.704776 0.701266 0.692251 0.702753 0.695932
          0.69476 0.687271 0.709845 0.702653 0.702455 0.716518
          0.011906 0.67347 0.699156 0.709052 0.693874 0.704878
          0.695477 0.72455 0.697469 0.691891 0.704232 0.71198
          0.685803 0.715664 0.697347 0.702512 0.700022 0.687104
          0.700911 0.695325 0.691996 0.709667 0.699297 0.698274
          0.71509 0.698426 0.710807 0.721787 0.700081 0.70871
          0.692876 0.705894 0.713701 0.701614 0.0118907 0.656476
          0.686705 0.690522 0.69693 0.694697 0.696976 0.683962
          0.698253 0.685842 0.697054 0.700724 0.692293 0.709529
          0.698182 0.698892 0.711247 0.685859 0.698226 0.703853
          0.693665 0.702598 0.717601 0.695968 0.693916 0.71458
          0.718483 0.706454 0.717044 0.703362 0.700385 0.693973
          0.705066 0.708102 0.0138757 0.677447 0.704311 0.701628
          0.683 0.727287 0.700229 0.699268 0.692293 0.697195
          0.70425 0.723331 0.696276 0.687825 0.682827 0.709803
          0.689914 0.70503 0.699255 0.702431 0.68351 0.69624
          0.711353 0.70853 0.703417 0.707295 0.704445 0.696958
          0.70749 0.707036 0.709582 0.718646 0.714791 0.720612
          0.00990828 0.647994 0.696472 0.67972 0.699865 0.685471
          0.688859 0.69645 0.713091 0.695527 0.695953 0.69844
          0.690169 0.702133 0.69328 0.701322 0.688602 0.688556
          0.706508 0.703159 0.684404 0.693374 0.698595 0.70938
          0.708973 0.69688 0.698098 0.696587 0.70304 0.704071
          0.672887 0.693594 0.696879 0.697643 0.011897 0.667643