<?xml version="1.0"?>
<VTKFile type="PolyData" version="0.1" byte_order="LittleEndian" header_type="UInt32" compressor="vtkZLibDataCompressor">
  <PolyData>
    <Piece NumberOfPoints="7920" NumberOfVerts="0" NumberOfLines="0" NumberOfStrips="0" NumberOfPolys="0">
      <PointData Scalars="Calcium Concentration">
        <DataArray type="Float32" Name="Calcium Concentration" format="ascii" RangeMin="0.6353849768638611" RangeMax="0.7404299974441528">
          0.672219 0.694646 0.701295 0.717586 0.703702 0.70091
          0.705421 0.690479 0.71079 0.695142 0.706041 0.694761
          0.701325 0.707403 0.698317 0.695738 0.712678 0.689564
          0.68403 0.710501 0.685095 0.688133 0.681408 0.686178
          0.688857 0.690326 0.70787 0.697844 0.690944 0.701984
          0.700528 0.697424 0.687011 0.686979 0.706349 0.706197
          0.707523 0.700037 0.702301 0.69617 0.695668 0.701255
          0.703759 0.698956 0.7027 0.705562 0.702115 0.711024
          0.693584 0.703476 0.704091 0.682601 0.697467 0.688169
          0.684622 0.671367 0.680075 0.687902 0.685618 0.693999
          0.685731 0.69327 0.699006 0.681623 0.691204 0.697992
          0.650016 0.687203 0.678874 0.687175 0.69175 0.685785
          0.689611 0.695384 0.706932 0.691467 0.697115 0.698938
          0.711408 0.705523 0.713023 0.711271 0.714901 0.709749
          0.694763 0.719144 0.706883 0.711203 0.716252 0.701192
          0.710403 0.706389 0.714609 0.698967 0.711085 0.705002
          0.707809 0.710358 0.712292 0.679757 0.6913 0.694641
          0.708434 0.698161 0.701737 0.698577 0.704693 0.711664
          0.699803 0.692988 0.705923 0.712044 0.695435 0.700731
          0.699482 0.703949 0.710559 0.692888 0.708826 0.699078
          0.687414 0.691493 0.69007 0.696131 0.693761 0.700785
          0.703946 0.695193 0.700437 0.69985 0.693124 0.692858
          0.655203 0.68802 0.684224 0.684504 0.683865 0.688117
          0.683229 0.702493 0.70065 0.689553 0.705362 0.699464
          0.711111 0.690835 0.708238 0.693477 0.696475 0.706364
          0.690315 0.710849 0.694391 0.699788 0.67818 0.692859
          0.684611 0.686814 0.691281 0.696347 0.681439 0.690709
          0.696578 0.699426 0.695131 0.672397 0.701919 0.701058
          0.710196 0.704695 0.702615 0.708783 0.684212 0.705455
          0.705044 0.703603 0.694222 0.69939 0.690924 0.70239
          0.693497 0.683555 0.693491 0.705798 0.691138 0.713412
          0.696945 0.703853 0.705034 0.717229 0.701153 0.705954
          0.701763 0.702594 0.715476 0.705855 0.693399 0.706725
          0.656155 0.68783 0.678827 0.684175 0.693383 0.689875
          0.681654 0.683642 0.724613 0.699141 0.691984 0.706209
          0.691865 0.703878 0.689344 0.700324 0.69917 0.694144
          0.692554 0.692638 0.708571 0.694094 0.70681 0.708909
          0.719211 0.725044 0.711526 0.723553 0.712738 0.714501
          0.711695 0.711051 0.709824 0.664404 0.68637 0.698464
          0.680457 0.706436 0.692264 0.682658 0.686966 0.70098
          0.717523 0.69301 0.689026 0.697935 0.694824 0.710837
          0.703301 0.699141 0.690792 0.689809 0.695196 0.701991
          0.6826 0.681392 0.683071 0.691382 0.694819 0.688706
          0.67945 0.681997 0.687861 0.685847 0.676436 0.694584
          0.664987 0.684357 0.685671 0.680475 0.682756 0.690954
          0.6931 0.696762 0.703703 0.707164 0.691273 0.695536
          0.695312 0.681198 0.696915 0.689025 0.6874 0.709663
          0.699026 0.702128 0.70138 0.692375 0.708781 0.697687
          0.713266 0.70497 0.709435 0.708996 0.710029 0.706773
          0.705135 0.706686 0.719927 0.667828 0.693856 0.700337
          0.706935 0.708468 0.69255 0.695342 0.695669 0.691189
          0.700417 0.695298 0.693535 0.698217 0.700847 0.701851
          0.699134 0.700845 0.71054 0.683024 0.706799 0.705687
          0.687037 0.705555 0.702196 0.710657 0.712883 0.714986
          0.702904 0.696047 0.713656 0.703183 0.715059 0.708866
          0.673596 0.698549 0.701938 0.693761 0.711689 0.690909
          0.709109 0.702878 0.690534 0.703226 0.691237 0.695896
          0.700806 0.695166 0.694545 0.696482 0.686424 0.691982
          0.704949 0.702315 0.712073 0.700679 0.711992 0.716311
          0.698178 0.709398 0.707127 0.709197 0.715923 0.715095
          0.704389 0.707761 0.70708 0.662795 0.676464 0.689735
          0.683626 0.682135 0.689162 0.692438 0.699308 0.699947
          0.701928 0.700792 0.69473 0.696518 0.693708 0.709064
          0.692575 0.69904 0.704853 0.690081 0.696808 0.686056
          0.711372 0.694009 0.686158 0.69499 0.699143 0.694277
          0.675305 0.69599 0.696157 0.694648 0.696451 0.704753
          0.668347 0.701679 0.6892 0.697915 0.69114 0.706989
          0.704778 0.705058 0.700281 0.702522 0.703853 0.703461
          0.693832 0.70502 0.695668 0.702745 0.712541 0.71071
          0.688284 0.696852 0.691595 0.697481 0.690391 0.694149
          0.698969 0.696064 0.6852 0.696806 0.696688 0.69835
          0.694096 0.700477 0.702178 0.678871 0.698198 0.703266
          0.718134 0.697636 0.703569 0.687654 0.706797 0.711144
          0.699237 0.690759 0.683409 0.705334 0.719309 0.707797
          0.700555 0.682183 0.703568 0.686265 0.691268 0.697983
          0.681307 0.683392 0.680158 0.687869 0.689008 0.694652
          0.688607 0.695922 0.699839 0.686912 0.68624 0.693895
          0.649706 0.687874 0.702208 0.689913 0.682079 0.691091
          0.693894 0.685042 0.702677 0.696096 0.713841 0.703184
          0.707514 0.69866 0.694257 0.708151 0.695534 0.70764
          0.710334 0.700403 0.70677 0.710023 0.706325 0.697346
          0.718762 0.699863 0.709122 0.718388 0.721089 0.709272
          0.716859 0.708649 0.707596 0.685761 0.701245 0.697171
          0.711223 0.695609 0.700665 0.705063 0.71792 0.710467
          0.69145 0.707537 0.705159 0.698227 0.697877 0.710092
          0.704272 0.698264 0.701929 0.706097 0.696627 0.68835
          0.68888 0.681432 0.69276 0.692379 0.68711 0.687588
          0.682854 0.703502 0.689505 0.683677 0.683046 0.687227
          0.66473 0.693725 0.68561 0.695278 0.684807 0.691583
          0.684727 0.697166 0.691596 0.703372 0.702611 0.697938
          0.695553 0.688696 0.693902 0.698853 0.701395 0.709798
          0.699049 0.699522 0.694512 0.69534 0.687881 0.686893
          0.679851 0.691649 0.699442 0.709125 0.704784 0.710552
          0.705141 0.682446 0.713836 0.677509 0.683093 0.672359
          0.688512 0.703596 0.682285 0.700676 0.688149 0.706193
          0.694123 0.690356 0.699424 0.696387 0.706806 0.694635
          0.696658 0.697427 0.695864 0.703269 0.692457 0.705233
          0.708031 0.70739 0.71247 0.727104 0.708064 0.69931
          0.710848 0.703293 0.710207 0.707148 0.713439 0.718578
          0.654755 0.688782 0.687513 0.686137 0.687284 0.692783
          0.688532 0.701474 0.693149 0.698024 0.695435 0.694868
          0.70205 0.691968 0.701733 0.701712 0.706408 0.698397
          0.704466 0.696638 0.692771 0.698067 0.690392 0.692928
          0.707157 0.687362 0.686896 0.685007 0.694946 0.695324
          0.686037 0.700084 0.700942 0.663085 0.692866 0.704579
          0.698294 0.70257 0.698999 0.692032 0.691539 0.709937
          0.695984 0.700114 0.694474 0.685961 0.702281 0.68997
          0.698562 0.707818 0.700631 0.695993 0.685147 0.698207
          0.677082 0.680247 0.692385 0.686595 0.689142 0.686028
          0.697346 0.690621 0.689464 0.686757 0.679636 0.688253
          0.676538 0.696957 0.699944 0.688528 0.704399 0.695995
          0.71374 0.686563 0.69616 0.705787 0.691952 0.698831
          0.707438 0.688756 0.692506 0.707248 0.703247 0.71215
          0.694468 0.700029 0.69504 0.677123 0.692088 0.68812
          0.690256 0.688342 0.687648 0.693136 0.691724 0.696341
          0.694397 0.700218 0.690547 0.666063 0.699101 0.690862
          0.702157 0.693615 0.709746 0.712233 0.686743 0.707729
          0.698777 0.689851 0.718659 0.691827 0.690597 0.702383
          0.690284 0.712443 0.693949 0.715488 0.700835 0.70852
          0.705824 0.712079 0.703784 0.714647 0.705576 0.693695
          0.714967 0.705473 0.728004 0.701339 0.699764 0.70637
          0.68802 0.68519 0.704533 0.714183 0.699974 0.699796
          0.694555 0.702938 0.69988 0.69927 0.701983 0.698629
          0.698769 0.690065 0.683924 0.708205 0.701597 0.699146
          0.700198 0.704963 0.723601 0.685419 0.714442 0.707696
          0.71362 0.707139 0.709362 0.69652 0.698063 0.718018
          0.717162 0.728395 0.709519 0.682605 0.70446 0.695343
          0.706092 0.692164 0.698749 0.702754 0.695077 0.705848
          0.692411 0.706803 0.694063 0.7124 0.695084 0.706389
          0.710262 0.706491 0.700096 0.686978 0.711981 0.705963
          0.717733 0.701638 0.711347 0.716156 0.715653 0.712608
          0.716242 0.703996 0.706451 0.711993 0.714413 0.717439
          0.671754 0.698431 0.695265 0.711464 0.694144 0.705159
          0.70527 0.700905 0.706258 0.698911 0.69848 0.681941
          0.699006 0.695395 0.703844 0.713451 0.689763 0.695212
          0.692916 0.695809 0.679341 0.678818 0.70358 0.679504
          0.703974 0.690942 0.690664 0.692379 0.702699 0.692494
          0.681482 0.690406 0.689386 0.661024 0.704825 0.701466
          0.704327 0.706956 0.701518 0.70898 0.696328 0.707829
          0.692545 0.712166 0.701649 0.711047 0.697773 0.701927
          0.697183 0.709069 0.700858 0.710876 0.708325 0.692181
          0.687313 0.68714 0.686383 0.69102 0.697966 0.697011
          0.696024 0.700516 0.692907 0.68254 0.696248 0.699862
          0.671413 0.689398 0.702192 0.708344 0.711286 0.693488
          0.698231 0.696075 0.698336 0.717681 0.697404 0.70386
          0.690799 0.701399 0.697094 0.711214 0.71083 0.681074
          0.690102 0.702303 0.702783 0.687335 0.693646 0.691433
          0.704761 0.68431 0.682822 0.681619 0.6898 0.68833
          0.679379 0.691054 0.67991 0.661802 0.689048 0.690261
          0.687668 0.694037 0.687768 0.699158 0.691764 0.707871
          0.699371 0.688013 0.69289 0.690989 0.689276 0.699244
          0.693138 0.699176 0.690942 0.687546 0.701594 0.698797
          0.69252 0.693065 0.695203 0.695301 0.688279 0.682104
          0.68491 0.69205 0.712546 0.697788 0.678827 0.699141
          0.674249 0.702275 0.682434 0.691116 0.702758 0.699003
          0.709382 0.704118 0.712717 0.693706 0.68258 0.705392
          0.704706 0.697829 0.695831 0.69265 0.702027 0.692632
          0.699695 0.700737 0.68531 0.683945 0.682562 0.701127
          0.687831 0.682304 0.685011 0.712316 0.697559 0.687344
          0.694854 0.686035 0.679727 0.676595 0.69711 0.692887
          0.70314 0.698163 0.696549 0.700055 0.698465 0.707198
          0.690946 0.695324 0.702148 0.697022 0.68078 0.724561
          0.694724 0.698951 0.707151 0.691101 0.705501 0.685749
          0.690004 0.688182 0.686519 0.695951 0.681104 0.700792
          0.695691 0.689594 0.691581 0.68027 0.671439 0.686677
          0.660887 0.688204 0.69202 0.693326 0.690041 0.682225
          0.69544 0.693015 0.691174 0.702005 0.703075 0.700464
          0.703342 0.707408 0.713163 0.699798 0.694402 0.696053
          0.701534 0.692317 0.718356 0.708337 0.715326 0.710978
          0.715393 0.720404 0.695906 0.708776 0.713365 0.69035
          0.699622 0.700827 0.719502 0.659089 0.694173 0.697895
          0.687278 0.705805 0.704378 0.687476 0.690268 0.694638
          0.691858 0.690916 0.697108 0.698033 0.689107 0.702837
          0.684982 0.709852 0.703353 0.686039 0.698823 0.692413
          0.726487 0.707797 0.691772 0.71412 0.687818 0.710151
          0.717632 0.712363 0.717048 0.704633 0.709146 0.704475
          0.674127 0.697353 0.700393 0.712418 0.703824 0.702331
          0.698225 0.68717 0.718777 0.695066 0.694133 0.707816
          0.699169 0.697451 0.701917 0.701197 0.704068 0.707373
          0.6962 0.69949 0.704945 0.698938 0.703147 0.696304
          0.700396 0.707544 0.701091 0.704954 0.702019 0.718154
          0.716518 0.712458 0.705147 0.662079 0.686106 0.705544
          0.685014 0.685974 0.696747 0.694313 0.68868 0.686262
          0.710431 0.709449 0.692555 0.70247 0.702724 0.704638
          0.699215 0.69618 0.710311 0.678544 0.712906 0.694702
          0.687877 0.702478 0.703821 0.689211 0.696303 0.69711
          0.687331 0.693444 0.692589 0.683895 0.706906 0.700293
          0.664196 0.697721 0.687133 0.674467 0.685968 0.684817
          0.68865 0.690739 0.703439 0.701477 0.706878 0.697026
          0.698936 0.702753 0.705294 0.697237 0.692243 0.701275
          0.707751 0.706142 0.694262 0.688876 0.683992 0.6844
          0.689254 0.702164 0.699357 0.684167 0.70407 0.685153
          0.69356 0.684797 0.684702 0.647083 0.682212 0.703377
          0.696207 0.690197 0.67506 0.694601 0.698105 0.683913
          0.685901 0.695384 0.699388 0.703717 0.710028 0.711282
          0.702963 0.705014 0.696314 0.703114 0.692265 0.709194
          0.69284 0.69856 0.715515 0.704386 0.698312 0.707635
          0.693845 0.702719 0.695121 0.686634 0.689761 0.693113
          0.670094 0.691334 0.703887 0.709974 0.695503 0.698406
          0.694457 0.703044 0.701361 0.695703 0.714601 0.691595
          0.700766 0.699876 0.697109 0.690566 0.702264 0.702231
          0.711629 0.70224 0.683523 0.694981 0.681383 0.692582
          0.694729 0.683578 0.685926 0.696379 0.69503 0.689456
          0.682701 0.693412 0.684213 0.638791 0.673546 0.697796
          0.702956 0.677348 0.687769 0.692597 0.701692 0.700505
          0.694234 0.688963 0.706232 0.697812 0.697703 0.705868
          0.688274 0.698167 0.697297 0.705193 0.696812 0.696879
          0.707157 0.709139 0.704457 0.705715 0.712923 0.720374
          0.708104 0.715604 0.697962 0.71445 0.708616 0.723566
          0.681979 0.700228 0.705415 0.70125 0.696904 0.689522
          0.69731 0.697475 0.703071 0.693979 0.71231 0.702647
          0.692355 0.699834 0.694044 0.707127 0.701313 0.713449
          0.703245 0.711603 0.698782 0.698854 0.702063 0.71015
          0.696313 0.711371 0.687479 0.676169 0.694111 0.70078
          0.683294 0.693217 0.692454 0.669506 0.698764 0.695076
          0.6966 0.70018 0.695394 0.694811 0.697449 0.688445
          0.699771 0.692894 0.712867 0.702214 0.68695 0.715403
          0.69242 0.709953 0.68675 0.70028 0.71364 0.695104
          0.693312 0.681842 0.695553 0.685541 0.686989 0.682411
          0.691975 0.702356 0.708511 0.702277 0.684776 0.690902
          0.669274 0.708128 0.710987 0.705432 0.682863 0.702127
          0.700451 0.705911 0.700827 0.703473 0.708571 0.693024
          0.7019 0.705721 0.702156 0.710932 0.709906 0.688064
          0.706947 0.702962 0.694763 0.698672 0.698106 0.700504
          0.680964 0.710786 0.68984 0.699337 0.69832 0.683333
          0.692993 0.681414 0.69286 0.674935 0.713229 0.704504
          0.690971 0.698102 0.696961 0.702773 0.695116 0.704359
          0.706092 0.697838 0.701041 0.695034 0.688635 0.717326
          0.698915 0.711872 0.708452 0.695529 0.69031 0.713302
          0.708187 0.697116 0.717997 0.719363 0.706113 0.711824
          0.708709 0.709358 0.711136 0.700827 0.699472 0.713111
          0.668783 0.691398 0.701326 0.698182 0.706142 0.710129
          0.695463 0.701348 0.705569 0.71309 0.69311 0.696485
          0.691284 0.712941 0.690859 0.705951 0.703346 0.695927
          0.689947 0.686369 0.687419 0.688825 0.691141 0.687984
          0.703175 0.690451 0.68651 0.6858 0.690339 0.693072
          0.698943 0.69049 0.678973 0.675449 0.693002 0.687852
          0.700504 0.706664 0.702561 0.707069 0.695594 0.698508
          0.701428 0.697011 0.69922 0.703507 0.693234 0.70094
          0.698086 0.708115 0.708623 0.687236 0.705678 0.706062
          0.707736 0.713385 0.703571 0.71096 0.710864 0.692042
          0.714121 0.717581 0.701953 0.705722 0.70922 0.710173
          0.649567 0.689654 0.700319 0.693205 0.684706 0.696581
          0.703355 0.705491 0.698304 0.692109 0.692325 0.685148
          0.70311 0.706583 0.703981 0.704839 0.707604 0.703539
          0.708431 0.706429 0.710926 0.706645 0.704176 0.732435
          0.703718 0.710734 0.726187 0.72708 0.714236 0.699335
          0.722347 0.709754 0.700845 0.645141 0.684924 0.685527
          0.688005 0.690701 0.698868 0.695897 0.681022 0.693088
          0.727417 0.703479 0.691682 0.697605 0.703354 0.706862
          0.694712 0.712769 0.68439 0.699935 0.702017 0.710059
          0.715552 0.709929 0.703186 0.720479 0.716039 0.709186
          0.690019 0.715612 0.703192 0.707887 0.710917 0.720863
          0.659706 0.673733 0.683469 0.684425 0.675973 0.693656
          0.685381 0.700281 0.711565 0.69592 0.694906 0.711476
          0.699779 0.699224 0.695258 0.701816 0.700784 0.70569
          0.689044 0.712292 0.705791 0.715094 0.703329 0.699665
          0.700102 0.696205 0.701556 0.701649 0.714037 0.702887
          0.715877 0.717717 0.711272 0.685545 0.690593 0.688033
          0.698592 0.706566 0.699589 0.689473 0.704716 0.698433
          0.699942 0.68213 0.693977 0.701616 0.690865 0.70492
          0.699092 0.705887 0.702829 0.703804 0.702467 0.699561
          0.721405 0.707403 0.696271 0.715707 0.703623 0.715819
          0.708263 0.705656 0.722512 0.709199 0.698042 0.722032
          0.663598 0.681676 0.700239 0.698146 0.697038 0.711881
          0.684973 0.683946 0.688987 0.716133 0.716249 0.705944
          0.701576 0.686544 0.708796 0.695805 0.702168 0.699358
          0.700374 0.693446 0.695661 0.683141 0.703499 0.697471
          0.687953 0.693176 0.689095 0.683567 0.693245 0.696865
          0.699148 0.693698 0.70054 0.665465 0.699 0.705289
          0.698331 0.698351 0.698821 0.717558 0.711595 0.69557
          0.689433 0.69367 0.696075 0.68982 0.712503 0.708705
          0.68883 0.691214 0.702154 0.699814 0.69743 0.699561
          0.695208 0.689308 0.690944 0.706159 0.706634 0.703106
          0.69866 0.694001 0.694545 0.687816 0.689566 0.68929
          0.663714 0.699989 0.687051 0.689851 0.683271 0.689785
          0.700669 0.699463 0.697522 0.686222 0.687964 0.686732
          0.70699 0.711637 0.707691 0.691149 0.699223 0.697006
          0.705836 0.689116 0.68407 0.696348 0.695851 0.700029
          0.70243 0.691203 0.695599 0.690438 0.709299 0.682213
          0.693486 0.698821 0.710222 0.65011 0.696358 0.689497
          0.705603 0.674346 0.687815 0.705398 0.695854 0.677997
          0.693679 0.70746 0.696764 0.701727 0.709392 0.710261
          0.689551 0.692489 0.706531 0.698731 0.696406 0.724813
          0.71046 0.708776 0.720274 0.715044 0.707354 0.703571
          0.707416 0.710618 0.693372 0.706332 0.714489 0.704086
          0.640914 0.682281 0.707438 0.697323 0.677935 0.668749
          0.690848 0.700604 0.68418 0.703698 0.706508 0.698299
          0.70619 0.703204 0.701902 0.705325 0.701002 0.695278
          0.703088 0.704566 0.701119 0.697618 0.699089 0.704001
          0.677199 0.693831 0.701414 0.6897 0.686231 0.692631
          0.697105 0.69052 0.7058 0.675217 0.696681 0.681281
          0.68825 0.68413 0.706238 0.68074 0.667243 0.709416
          0.709015 0.689726 0.705566 0.692221 0.687285 0.697066
          0.702209 0.702334 0.699957 0.697437 0.703799 0.697833
          0.695887 0.69404 0.675962 0.697629 0.706669 0.693614
          0.67273 0.699661 0.691933 0.691251 0.713396 0.678307
          0.68082 0.708394 0.712671 0.687294 0.701026 0.703065
          0.720882 0.697072 0.713582 0.699263 0.691498 0.699877
          0.698328 0.679846 0.698115 0.705621 0.698186 0.695487
          0.702522 0.701816 0.697752 0.697354 0.703048 0.718028
          0.70749 0.714439 0.701093 0.710263 0.71122 0.720214
          0.709005 0.715384 0.716621 0.677544 0.705834 0.703546
          0.695967 0.698268 0.688823 0.684295 0.693494 0.711494
          0.696551 0.691668 0.705249 0.6984 0.688663 0.688903
          0.706988 0.697496 0.689321 0.692343 0.697498 0.705839
          0.711474 0.70269 0.708396 0.688525 0.703005 0.712912
          0.70169 0.701416 0.715083 0.705091 0.718562 0.699629
          0.640636 0.693119 0.692566 0.687441 0.689663 0.688838
          0.685039 0.699302 0.694811 0.701957 0.69161 0.711137
          0.695472 0.705114 0.7107 0.703286 0.70177 0.699452
          0.693606 0.70111 0.699856 0.689938 0.693152 0.711206
          0.704723 0.700634 0.710211 0.700152 0.7011 0.681751
          0.706468 0.701527 0.696752 0.680681 0.704413 0.707904
          0.705887 0.700522 0.709378 0.700274 0.701716 0.679537
          0.707068 0.707228 0.69232 0.693973 0.693303 0.698709
          0.696719 0.683968 0.689665 0.701747 0.692879 0.712555
          0.699128 0.703873 0.708479 0.708019 0.695351 0.698717
          0.715129 0.698762 0.700066 0.711271 0.715391 0.708707
          0.660016 0.686677 0.67916 0.689887 0.684441 0.693272
          0.69252 0.706162 0.713787 0.699453 0.704531 0.696929
          0.698408 0.702456 0.690617 0.711606 0.694489 0.698534
          0.688923 0.69828 0.713359 0.686522 0.688572 0.697502
          0.67973 0.683233 0.690047 0.695225 0.685981 0.686742
          0.689127 0.689722 0.699125 0.676293 0.703248 0.692334
          0.691347 0.709594 0.682792 0.692048 0.697424 0.693845
          0.72033 0.710159 0.696701 0.70119 0.700063 0.692229
          0.705578 0.697803 0.698434 0.701658 0.698056 0.694662
          0.690355 0.696612 0.697295 0.696127 0.698735 0.700892
          0.682495 0.697367 0.680546 0.679568 0.689709 0.682294
          0.682347 0.700853 0.692498 0.692641 0.699375 0.687685
          0.689535 0.699104 0.704798 0.706596 0.700742 0.699644
          0.695142 0.700012 0.699081 0.699402 0.692441 0.701764
          0.700389 0.702142 0.691161 0.693836 0.692448 0.6926
          0.693473 0.695141 0.70162 0.682895 0.691372 0.6804
          0.682384 0.7014 0.692571 0.690325 0.70427 0.694847
          0.705064 0.711745 0.68011 0.699755 0.702302 0.696282
          0.709477 0.703706 0.708924 0.708919 0.702644 0.710163
          0.696592 0.703388 0.694853 0.714142 0.691925 0.685037
          0.685237 0.672611 0.688025 0.700959 0.686389 0.685411
          0.685415 0.689563 0.702748 0.687346 0.683134 0.69105
          0.658279 0.686646 0.697158 0.689922 0.688818 0.683133
          0.703791 0.695806 0.682521 0.691092 0.713868 0.703323
          0.701191 0.699254 0.69808 0.694003 0.703147 0.702014
          0.706072 0.6895 0.72085 0.717229 0.711084 0.712959
          0.700666 0.726072 0.717915 0.727769 0.712374 0.701689
          0.724501 0.708371 0.705029 0.656887 0.688565 0.688822
          0.681038 0.677687 0.689229 0.712148 0.696228 0.696571
          0.694008 0.708095 0.690362 0.706663 0.713267 0.692838
          0.69892 0.694876 0.709673 0.695304 0.706414 0.692133
          0.688795 0.6817 0.692789 0.686208 0.692083 0.703826
          0.68667 0.691099 0.684842 0.68874 0.695176 0.694358
          0.666937 0.688404 0.682568 0.702653 0.689139 0.689433
          0.68882 0.685067 0.697616 0.700749 0.70644 0.699371
          0.703171 0.694974 0.703721 0.694603 0.701876 0.702384
          0.69524 0.696744 0.724257 0.717408 0.703041 0.729999
          0.713635 0.700813 0.703028 0.692985 0.717152 0.726018
          0.71586 0.708606 0.69986 0.642361 0.69173 0.711391
          0.707027 0.694422 0.702791 0.71395 0.709481 0.687906
          0.708669 0.695677 0.705273 0.704524 0.706346 0.706535
          0.6937 0.705409 0.703894 0.703451 0.694222 0.706405
          0.701879 0.701128 0.70888 0.699588 0.704786 0.694056
          0.695494 0.690538 0.674353 0.675629 0.689581 0.686806
          0.667611 0.707037 0.69269 0.697595 0.700138 0.69593
          0.704529 0.701865 0.694148 0.697867 0.704299 0.704806
          0.706926 0.697931 0.714899 0.69482 0.69834 0.701743
          0.68946 0.70558 0.681007 0.706262 0.686129 0.692935
          0.688821 0.707598 0.680603 0.685488 0.694788 0.700312
          0.686027 0.700324 0.683253 0.659733 0.706823 0.69737
          0.689178 0.702264 0.701192 0.706836 0.696975 0.703021
          0.699854 0.705613 0.690377 0.703993 0.71379 0.690326
          0.705988 0.709105 0.700576 0.713394 0.710138 0.699335
          0.683995 0.698232 0.704074 0.700093 0.69793 0.691034
          0.693711 0.714049 0.678929 0.688567 0.690727 0.695851
          0.669794 0.701946 0.703176 0.693532 0.691677 0.695925
          0.689943 0.689929 0.687372 0.690842 0.686589 0.706594
          0.704941 0.691988 0.686521 0.707207 0.703332 0.696369
          0.69815 0.69929 0.694028 0.705703 0.709377 0.706516
          0.696195 0.712972 0.699363 0.719389 0.712944 0.710358
          0.690749 0.721999 0.713262 0.660688 0.679642 0.684405
          0.69103 0.695859 0.694277 0.690403 0.697854 0.694908
          0.708142 0.711332 0.689317 0.708293 0.68595 0.693192
          0.691452 0.70207 0.697271 0.695484 0.696707 0.688896
          0.68607 0.686517 0.682161 0.689687 0.69828 0.679634
          0.68912 0.692551 0.692426 0.696197 0.692766 0.6844
          0.686419 0.69818 0.689558 0.707235 0.691559 0.700436
          0.688962 0.696925 0.701909 0.714253 0.680328 0.718229
          0.709747 0.69613 0.702057 0.700878 0.714216 0.691448
          0.690582 0.692523 0.693789 0.676264 0.689533 0.695632
          0.695736 0.681052 0.694087 0.677043 0.687098 0.693289
          0.688415 0.698286 0.703688 0.659934 0.702253 0.692715
          0.705362 0.693305 0.694197 0.697178 0.703229 0.688106
          0.706256 0.701109 0.699786 0.706521 0.699479 0.720516
          0.683625 0.689931 0.708767 0.716259 0.702629 0.695174
          0.717081 0.70685 0.703147 0.695527 0.69703 0.70352
          0.700729 0.705825 0.698194 0.691343 0.707556 0.700481
          0.674096 0.705049 0.699957 0.689262 0.697779 0.698732
          0.709933 0.696007 0.703747 0.689368 0.704972 0.698817
          0.703862 0.711762 0.711506 0.686893 0.703019 0.705054
          0.684093 0.700575 0.717058 0.706575 0.708682 0.716456
          0.718535 0.702489 0.694601 0.713015 0.705505 0.689633
          0.711098 0.715527 0.715899 0.653245 0.685358 0.688856
          0.695775 0.694079 0.68258 0.682601 0.692407 0.712483
          0.703969 0.703626 0.694693 0.698688 0.705933 0.704802
          0.708713 0.688221 0.70906 0.686034 0.710043 0.720193
          0.717416 0.711562 0.713606 0.706065 0.693699 0.698484
          0.705315 0.702118 0.707189 0.711985 0.707612 0.712121
          0.652922 0.695053 0.693383 0.685103 0.689178 0.696697
          0.706536 0.692045 0.688468 0.687303 0.696579 0.703673
          0.700308 0.704228 0.696223 0.683736 0.68336 0.698291
          0.701858 0.704477 0.723595 0.721591 0.712248 0.716088
          0.710146 0.7019 0.714488 0.705872 0.705222 0.698207
          0.704822 0.707023 0.711224 0.675868 0.695598 0.687213
          0.700831 0.695924 0.696149 0.693706 0.691525 0.703545
          0.705309 0.696374 0.701673 0.69568 0.702133 0.697635
          0.68203 0.715998 0.700686 0.704694 0.70136 0.714086
          0.703601 0.703938 0.708564 0.708139 0.710439 0.728136
          0.698288 0.706683 0.703991 0.711456 0.729558 0.700612
          0.659127 0.691831 0.713948 0.702275 0.700367 0.690588
          0.701928 0.708667 0.703783 0.681835 0.705436 0.702869
          0.706667 0.688065 0.685749 0.693166 0.702307 0.693918
          0.708906 0.711952 0.709708 0.702202 0.697255 0.711997
          0.704153 0.703164 0.708517 0.716664 0.708298 0.697871
          0.696338 0.712975 0.700856 0.660433 0.685624 0.67545
          0.687037 0.688968 0.690019 0.701045 0.702714 0.698622
          0.706383 0.687665 0.712761 0.70276 0.687045 0.708158
          0.690339 0.694381 0.694565 0.69886 0.707388 0.702128
          0.703259 0.705907 0.702308 0.693016 0.703807 0.696804
          0.695609 0.683847 0.711156 0.705803 0.703544 0.718021
          0.673678 0.696083 0.708346 0.696725 0.704001 0.696335
          0.724278 0.696359 0.692651 0.705337 0.711301 0.686341
          0.71313 0.696236 0.703586 0.699011 0.685686 0.704001
          0.696213 0.690691 0.708943 0.698292 0.699231 0.712485
          0.703453 0.710123 0.721441 0.699104 0.712004 0.693683
          0.709146 0.713121 0.702643 0.658191 0.687287 0.689265
          0.695813 0.695528 0.695887 0.682473 0.697187 0.686465
          0.700044 0.701782 0.691007 0.708813 0.697087 0.701899
          0.710574 0.688487 0.697208 0.704977 0.69042 0.701674
          0.717178 0.696875 0.69471 0.71402 0.718012 0.707626
          0.714523 0.704456 0.699393 0.69277 0.706279 0.70734
          0.677793 0.701371 0.700705 0.683472 0.727096 0.699246
          0.698228 0.691011 0.698166 0.701382 0.725019 0.699195
          0.68644 0.685328 0.711121 0.688618 0.704158 0.698246
          0.703506 0.681972 0.699176 0.710689 0.70775 0.700477
          0.704453 0.705556 0.697911 0.708756 0.704199 0.710944
          0.720249 0.71221 0.7202 0.647408 0.697389 0.678091
          0.702901 0.686044 0.69157 0.699384 0.710471 0.696404
          0.696866 0.699393 0.690844 0.69713 0.694111 0.69832
          0.691307 0.689221 0.707719 0.702274 0.684918 0.692103
          0.69753 0.706607 0.708226 0.699855 0.696995 0.695436
          0.70418 0.705215 0.675121 0.694446 0.699847 0.700604
          0.667681 0.71158 0.694792 0.708022 0.704922 0.696756
          0.705051 0.700615 0.6955 0.700389 0.710687 0.687845
          0.705597 0.689866 0.705084 0.708746 0.705922 0.700794
          0.709734 0.704872 0.685677 0.708077 0.694469 0.699482
          0.698496 0.695212 0.698629 0.690725 0.68873 0.683305
          0.681925 0.696729 0.699405 0.694391 0.695461 0.692115
          0.712207 0.694773 0.704695 0.696291 0.710118 0.714245
          0.700688 0.694685 0.709418 0.687586 0.703112 0.701284
          0.697137 0.706994 0.696161 0.684152 0.703628 0.694085
          0.688745 0.690094 0.674238 0.684904 0.698325 0.688065
          0.684836 0.699284 0.707481 0.688039 0.693873 0.692938
          0.69021 0.696137 0.70223 0.688959 0.693033 0.707055
          0.709108 0.690607 0.704756 0.700629 0.695114 0.711628
          0.688175 0.689242 0.693944 0.708765 0.696877 0.69599
          0.690101 0.702163 0.694931 0.704319 0.698301 0.685019