<?xml version="1.0"?>
<VTKFile type="PolyData" version="0.1" byte_order="LittleEndian" header_type="UInt32" compressor="vtkZLibDataCompressor">
  <PolyData>
    <Piece NumberOfPoints="7920" NumberOfVerts="0" NumberOfLines="0" NumberOfStrips="0" NumberOfPolys="0">
      <PointData Scalars="Calcium Concentration">
        <DataArray type="Float32" Name="Calcium Concentration" format="ascii" RangeMin="0.5640180110931396" RangeMax="0.7346339821815491">
          0.602479 0.711423 0.707786 0.697865 0.705625 0.696796
          0.693951 0.720463 0.698606 0.678723 0.703063 0.702434
          0.698077 0.714547 0.696319 0.697728 0.688523 0.701634
          0.696888 0.714106 0.690317 0.681352 0.684647 0.692912
          0.686184 0.685379 0.703745 0.687797 0.691093 0.689771
          0.706093 0.693942 0.675653 0.609045 0.69602 0.697987
          0.701554 0.689888 0.694264 0.694156 0.707135 0.693678
          0.702639 0.68941 0.704763 0.691844 0.692901 0.711437
          0.682228 0.710382 0.694048 0.697888 0.706895 0.689829
          0.694535 0.679902 0.689524 0.680145 0.697615 0.6916
          0.690401 0.690717 0.692014 0.693155 0.680025 0.695787
          0.598973 0.690741 0.704946 0.682766 0.687817 0.681435
          0.693516 0.697574 0.7017 0.7072 0.701073 0.697188
          0.690905 0.703404 0.704575 0.700965 0.709442 0.711706
          0.705196 0.70183 0.717158 0.706925 0.712108 0.697817
          0.709825 0.710832 0.708976 0.706439 0.712846 0.701451
          0.709199 0.709065 0.71852 0.59788 0.696996 0.707844
          0.701666 0.701998 0.693955 0.703475 0.691825 0.706685
          0.698742 0.690606 0.692281 0.700712 0.697139 0.712656
          0.702689 0.700991 0.698749 0.701698 0.706135 0.700555
          0.690262 0.694281 0.696198 0.684952 0.712443 0.70969
          0.690198 0.70439 0.698533 0.695909 0.700453 0.705625
          0.581313 0.681751 0.689863 0.705745 0.691186 0.687465
          0.687702 0.70062 0.691506 0.696199 0.701991 0.698198
          0.701855 0.702647 0.699993 0.699329 0.70047 0.684045
          0.696977 0.706323 0.693329 0.691806 0.692223 0.678855
          0.69462 0.691653 0.680182 0.70643 0.688993 0.691301
          0.687019 0.698345 0.694425 0.598207 0.702654 0.704173
          0.701352 0.703531 0.704153 0.692522 0.70439 0.710906
          0.706371 0.695583 0.705504 0.701026 0.701401 0.704082
          0.701796 0.70751 0.691476 0.715985 0.697209 0.701644
          0.706874 0.692445 0.692673 0.714994 0.708412 0.707769
          0.686707 0.699887 0.71587 0.718228 0.71419 0.701117
          0.591502 0.680085 0.686162 0.689178 0.685264 0.693907
          0.686854 0.698299 0.713078 0.705129 0.696419 0.686724
          0.701366 0.71539 0.695505 0.699726 0.692619 0.699618
          0.70557 0.694636 0.705386 0.710119 0.700008 0.698259
          0.695809 0.720681 0.71112 0.710776 0.721345 0.700955
          0.718673 0.708707 0.712564 0.586333 0.681671 0.676117
          0.694016 0.682124 0.703015 0.679569 0.669234 0.710132
          0.699569 0.691355 0.704727 0.70505 0.69532 0.700297
          0.697428 0.701045 0.706092 0.704672 0.704582 0.685112
          0.686278 0.685046 0.686724 0.70036 0.695585 0.694637
          0.685037 0.696192 0.672281 0.696223 0.685471 0.690129
          0.585286 0.692903 0.684754 0.689687 0.69079 0.696172
          0.685084 0.70437 0.694956 0.693957 0.700403 0.702712
          0.695953 0.691443 0.700091 0.704233 0.7122 0.690961
          0.698339 0.697943 0.709283 0.693134 0.708259 0.700227
          0.713381 0.710642 0.705401 0.700697 0.708758 0.701396
          0.716624 0.703902 0.716503 0.606873 0.703718 0.702476
          0.707842 0.697393 0.691745 0.71147 0.70171 0.697031
          0.69982 0.713521 0.691366 0.702824 0.702018 0.703364
          0.693712 0.70514 0.693658 0.693587 0.698241 0.705116
          0.695444 0.703757 0.703693 0.705742 0.715868 0.708679
          0.704273 0.704103 0.705021 0.713653 0.697802 0.707823
          0.616864 0.698345 0.689516 0.701354 0.694701 0.692153
          0.705841 0.696321 0.701795 0.696394 0.702508 0.706923
          0.706917 0.699942 0.70213 0.71823 0.694831 0.700116
          0.695185 0.695706 0.710333 0.703686 0.720955 0.696996
          0.698078 0.719582 0.71017 0.693753 0.696982 0.706563
          0.713851 0.722416 0.71119 0.59249 0.681763 0.69071
          0.686815 0.676238 0.687656 0.691049 0.712946 0.693385
          0.701812 0.698183 0.697621 0.706012 0.704325 0.69803
          0.701905 0.708147 0.711047 0.698144 0.721481 0.693711
          0.686496 0.686929 0.677444 0.672584 0.692815 0.679732
          0.691381 0.690857 0.690285 0.699793 0.694192 0.701731
          0.606995 0.696882 0.694016 0.727025 0.690502 0.704659
          0.707388 0.696707 0.694228 0.687592 0.693833 0.69653
          0.709376 0.702193 0.697152 0.704049 0.699361 0.698279
          0.693247 0.71003 0.689223 0.700144 0.690127 0.684148
          0.692309 0.699512 0.689402 0.701771 0.694237 0.696772
          0.697465 0.69517 0.69047 0.601048 0.702668 0.69248
          0.70806 0.708304 0.701211 0.710928 0.717767 0.704822
          0.694892 0.698556 0.699484 0.695709 0.703388 0.705619
          0.701886 0.694076 0.696053 0.705052 0.688127 0.693488
          0.703927 0.687597 0.682379 0.689875 0.693289 0.686696
          0.69254 0.698398 0.68145 0.688289 0.690561 0.691938
          0.583786 0.674272 0.692265 0.69193 0.689668 0.67733
          0.681881 0.701173 0.678893 0.689125 0.709007 0.693434
          0.700453 0.706299 0.708663 0.698112 0.708043 0.705335
          0.697966 0.695073 0.699359 0.708132 0.702758 0.713308
          0.710456 0.702506 0.718875 0.7264 0.713294 0.722109
          0.703749 0.714773 0.716187 0.601489 0.692142 0.689153
          0.708289 0.701027 0.698177 0.688793 0.700477 0.695124
          0.707077 0.69674 0.692233 0.702865 0.705818 0.696054
          0.699838 0.699339 0.701225 0.699772 0.704034 0.681815
          0.690896 0.695309 0.691355 0.689236 0.694132 0.692755
          0.690568 0.689049 0.679636 0.698393 0.676184 0.679406
          0.583983 0.687836 0.675884 0.684559 0.68603 0.699127
          0.692182 0.696352 0.691119 0.693093 0.691563 0.704044
          0.703925 0.695202 0.691591 0.696197 0.701899 0.719535
          0.69017 0.687145 0.687384 0.691007 0.702221 0.689853
          0.691433 0.691508 0.693912 0.695274 0.699767 0.703601
          0.696776 0.695604 0.692378 0.59106 0.686271 0.680007
          0.680801 0.690712 0.681001 0.68829 0.711556 0.701213
          0.701827 0.691571 0.698576 0.69786 0.710686 0.68507
          0.708198 0.694177 0.702145 0.708088 0.700341 0.706984
          0.719225 0.703958 0.702905 0.705561 0.7154 0.703954
          0.696908 0.713754 0.700584 0.719802 0.697807 0.713325
          0.572466 0.687272 0.687211 0.688567 0.694658 0.678947
          0.682281 0.713366 0.698189 0.696797 0.703167 0.713683
          0.70233 0.698591 0.705275 0.704953 0.699001 0.69561
          0.688123 0.698337 0.689509 0.703645 0.684377 0.688308
          0.692349 0.695187 0.698129 0.684979 0.703307 0.681759
          0.69984 0.702567 0.711245 0.607488 0.698211 0.699854
          0.700565 0.700289 0.691907 0.706492 0.701555 0.702004
          0.696766 0.698144 0.701341 0.695752 0.713111 0.702204
          0.705221 0.697873 0.698559 0.712671 0.694126 0.698561
          0.692883 0.685338 0.682368 0.691486 0.684307 0.697035
          0.693738 0.689356 0.690194 0.68997 0.688365 0.687514
          0.598454 0.710259 0.706906 0.714672 0.717777 0.690468
          0.692481 0.696041 0.718338 0.696147 0.704425 0.701818
          0.694276 0.701789 0.693235 0.704484 0.700058 0.700593
          0.700254 0.697854 0.684942 0.692247 0.673184 0.698675
          0.686551 0.696883 0.689409 0.692446 0.699404 0.700187
          0.697078 0.690698 0.686789 0.610977 0.702099 0.696376
          0.696049 0.699393 0.698616 0.720854 0.68664 0.70398
          0.702529 0.683999 0.711925 0.703981 0.703424 0.718411
          0.697697 0.707232 0.686792 0.702322 0.693261 0.7084
          0.707477 0.711937 0.707512 0.701837 0.714474 0.708519
          0.703897 0.728174 0.714494 0.704091 0.701121 0.700984
          0.60283 0.708208 0.69048 0.728434 0.699738 0.688612
          0.688491 0.703637 0.706482 0.700969 0.704778 0.700173
          0.697364 0.710194 0.679694 0.713861 0.712253 0.682176
          0.693867 0.692728 0.726041 0.692301 0.707539 0.698847
          0.701966 0.72435 0.709521 0.71146 0.7145 0.72553
          0.729836 0.707778 0.713813 0.606421 0.715609 0.699502
          0.697607 0.70209 0.701039 0.696361 0.706075 0.707971
          0.704875 0.692076 0.700509 0.710625 0.699738 0.709853
          0.705552 0.686554 0.705856 0.697955 0.695478 0.702141
          0.715593 0.729712 0.705152 0.712564 0.714041 0.716503
          0.720564 0.709253 0.714609 0.722918 0.700255 0.699052
          0.5978 0.690609 0.696359 0.701873 0.709983 0.697608
          0.695477 0.700833 0.715963 0.709043 0.689004 0.688684
          0.701033 0.691775 0.720107 0.689864 0.705981 0.689588
          0.695729 0.712746 0.689235 0.684203 0.68281 0.690314
          0.688992 0.709866 0.696689 0.69074 0.684213 0.696615
          0.688075 0.684471 0.691093 0.607299 0.689667 0.697572
          0.682307 0.696812 0.692651 0.715034 0.691886 0.700975
          0.696457 0.701606 0.698551 0.691056 0.690475 0.713044
          0.7006 0.697678 0.694249 0.699832 0.697237 0.70136
          0.68116 0.688325 0.688848 0.680211 0.699189 0.690797
          0.687561 0.700304 0.699836 0.690116 0.700394 0.697671
          0.592106 0.709908 0.697541 0.716132 0.696452 0.697119
          0.701456 0.698647 0.714463 0.70213 0.705465 0.703743
          0.692502 0.708929 0.692147 0.70874 0.694404 0.700152
          0.706021 0.696153 0.693128 0.693912 0.677585 0.676784
          0.690677 0.683426 0.686568 0.683514 0.683218 0.684184
          0.696591 0.687873 0.679646 0.58942 0.69762 0.691996
          0.683529 0.699742 0.693223 0.69849 0.704062 0.688926
          0.689299 0.699532 0.692528 0.694661 0.711235 0.705612
          0.701518 0.710868 0.680244 0.714222 0.709329 0.680026
          0.690085 0.686676 0.68165 0.697321 0.691941 0.689092
          0.687447 0.692431 0.707177 0.700531 0.687716 0.691368
          0.595799 0.704708 0.710969 0.706966 0.70248 0.69635
          0.698038 0.702811 0.699784 0.709179 0.699099 0.695257
          0.709448 0.697549 0.711515 0.707305 0.683807 0.708834
          0.702337 0.689719 0.692488 0.687095 0.684049 0.69239
          0.69754 0.678408 0.682706 0.692853 0.698651 0.686709
          0.690601 0.688695 0.694064 0.595922 0.705862 0.710545
          0.694028 0.703458 0.692104 0.699641 0.694144 0.707547
          0.700347 0.70631 0.701794 0.686554 0.71185 0.699794
          0.691713 0.699742 0.702157 0.708892 0.690499 0.70114
          0.694802 0.670236 0.697525 0.691408 0.690919 0.691228
          0.693424 0.698135 0.70028 0.692153 0.692883 0.68735
          0.585984 0.681825 0.696072 0.699375 0.68814 0.683271
          0.68953 0.697371 0.683947 0.708897 0.701948 0.710354
          0.696942 0.694489 0.694146 0.700861 0.704341 0.695168
          0.70675 0.695124 0.716165 0.704569 0.705201 0.712889
          0.726497 0.714694 0.720011 0.70382 0.711655 0.703492
          0.695204 0.711816 0.71545 0.579256 0.690205 0.69418
          0.684115 0.688626 0.686488 0.699889 0.690952 0.682165
          0.683161 0.71299 0.711832 0.708932 0.701942 0.688279
          0.704802 0.706619 0.690703 0.709462 0.694581 0.714282
          0.715704 0.700636 0.69968 0.700809 0.698793 0.706464
          0.71168 0.69936 0.706418 0.716948 0.716805 0.703035
          0.609593 0.710306 0.687859 0.694602 0.704411 0.697456
          0.701926 0.690642 0.713325 0.703297 0.709965 0.697081
          0.690302 0.697946 0.70684 0.705259 0.708472 0.688163
          0.698193 0.692486 0.704308 0.696069 0.701592 0.693344
          0.696722 0.721794 0.703595 0.709051 0.711711 0.71882
          0.7104 0.705778 0.703574 0.590523 0.686645 0.682113
          0.689713 0.673739 0.687052 0.688023 0.708166 0.684438
          0.716235 0.697207 0.689848 0.705178 0.712683 0.688207
          0.701458 0.6972 0.69745 0.693595 0.708411 0.687967
          0.699922 0.685085 0.696819 0.696933 0.69877 0.693234
          0.699037 0.689833 0.694766 0.684662 0.695165 0.700108
          0.594604 0.693537 0.711178 0.677161 0.681216 0.68507
          0.694721 0.686937 0.697868 0.689388 0.698091 0.69291
          0.705779 0.69828 0.70545 0.697919 0.698707 0.697662
          0.696646 0.708676 0.698978 0.69695 0.68841 0.702482
          0.696274 0.69063 0.697964 0.684119 0.689226 0.689707
          0.699288 0.692341 0.689683 0.571969 0.673026 0.697592
          0.696274 0.695895 0.686071 0.690057 0.702273 0.689358
          0.694224 0.68942 0.692517 0.703758 0.69118 0.698564
          0.693201 0.706639 0.696905 0.688087 0.693119 0.70013
          0.698633 0.681399 0.705996 0.705377 0.704606 0.699052
          0.691659 0.695514 0.696489 0.688603 0.688552 0.694048
          0.585528 0.683817 0.704308 0.70158 0.700381 0.695151
          0.704909 0.704516 0.689884 0.708957 0.705001 0.687888
          0.707466 0.711176 0.698837 0.697997 0.707276 0.698179
          0.705173 0.696111 0.686343 0.693073 0.696172 0.681151
          0.704993 0.693295 0.677681 0.693911 0.70031 0.697126
          0.682271 0.688487 0.684514 0.57426 0.682795 0.700825
          0.686937 0.677043 0.694214 0.689719 0.692606 0.683188
          0.698525 0.685792 0.707846 0.710511 0.702437 0.697154
          0.702063 0.707517 0.714696 0.69417 0.689363 0.706462
          0.708269 0.721184 0.707543 0.701522 0.706107 0.72183
          0.730351 0.705606 0.697132 0.702673 0.701041 0.719102
          0.618548 0.704271 0.70852 0.709662 0.693995 0.713824
          0.709078 0.699959 0.710443 0.708119 0.694188 0.69579
          0.704155 0.709631 0.698403 0.701166 0.703067 0.706166
          0.709582 0.704588 0.702096 0.699499 0.701683 0.700312
          0.707297 0.689184 0.699298 0.694085 0.689769 0.692532
          0.690712 0.706158 0.677349 0.597345 0.700486 0.687982
          0.712235 0.69612 0.706464 0.694317 0.69877 0.696502
          0.685626 0.706706 0.691101 0.703058 0.687818 0.712352
          0.701137 0.701347 0.694984 0.713793 0.705193 0.68282
          0.702082 0.688505 0.691831 0.680109 0.69258 0.685076
          0.681138 0.692618 0.696804 0.720443 0.693249 0.698241
          0.586414 0.710814 0.696891 0.704233 0.707403 0.703594
          0.708227 0.686446 0.704476 0.702638 0.690766 0.685765
          0.713917 0.691364 0.702634 0.711294 0.701069 0.695086
          0.70288 0.708529 0.69154 0.702598 0.687816 0.69301
          0.695017 0.696424 0.687912 0.691362 0.692535 0.703753
          0.691097 0.696852 0.695916 0.600501 0.72356 0.696873
          0.700921 0.692596 0.702699 0.698641 0.701293 0.701818
          0.693926 0.708626 0.694296 0.705957 0.703615 0.699182
          0.685349 0.723615 0.690606 0.693996 0.705474 0.715821
          0.707684 0.697237 0.716109 0.706363 0.716207 0.70828
          0.716504 0.706135 0.699055 0.699026 0.701825 0.713871
          0.602681 0.70363 0.699107 0.700774 0.708618 0.699542
          0.706525 0.699001 0.70556 0.692355 0.716148 0.694972
          0.690977 0.71793 0.70099 0.681453 0.704483 0.694321
          0.719642 0.703327 0.691669 0.698059 0.69684 0.691738
          0.699098 0.694806 0.689387 0.679605 0.682432 0.697388
          0.698202 0.69546 0.670456 0.599638 0.701255 0.702399
          0.702962 0.695857 0.705664 0.695176 0.702232 0.699173
          0.698817 0.697986 0.704214 0.6872 0.699853 0.70634
          0.697778 0.698468 0.685856 0.701101 0.709689 0.721658
          0.713817 0.709557 0.702668 0.711408 0.719129 0.703357
          0.714649 0.713488 0.707629 0.709116 0.701755 0.7102
          0.581877 0.674565 0.715168 0.686668 0.684353 0.685223
          0.684921 0.693592 0.692595 0.702623 0.683189 0.686036
          0.713483 0.69429 0.706267 0.686372 0.696352 0.703337
          0.690747 0.70149 0.716386 0.708257 0.704838 0.72101
          0.711095 0.714181 0.722713 0.715704 0.718423 0.714421
          0.709384 0.71264 0.729986 0.585259 0.689634 0.684687
          0.682605 0.68575 0.695188 0.687816 0.703713 0.688811
          0.704727 0.702438 0.689601 0.712144 0.685042 0.717421
          0.696536 0.713406 0.686017 0.697075 0.710733 0.709494
          0.716274 0.705547 0.693684 0.712386 0.713274 0.714626
          0.703033 0.706662 0.705622 0.699168 0.707247 0.697763
          0.579274 0.694772 0.684921 0.68567 0.695854 0.679214
          0.694285 0.697485 0.70281 0.700276 0.699676 0.708713
          0.684848 0.711013 0.689448 0.693211 0.700478 0.68901
          0.697801 0.706435 0.709944 0.717346 0.713962 0.700018
          0.693884 0.699002 0.710813 0.696659 0.714092 0.710247
          0.705026 0.717282 0.717538 0.614914 0.708777 0.686815
          0.703334 0.708918 0.696047 0.694369 0.701423 0.713439
          0.697565 0.707752 0.708817 0.701775 0.708625 0.703265
          0.709087 0.699753 0.691341 0.689788 0.701045 0.704942
          0.706456 0.7195 0.693501 0.696344 0.707105 0.711398
          0.714618 0.712955 0.709022 0.713341 0.706642 0.71724
          0.582082 0.679014 0.711054 0.699141 0.700498 0.686001
          0.683808 0.682357 0.683531 0.694784 0.700573 0.681321
          0.700477 0.69895 0.720184 0.69055 0.696903 0.714486
          0.691051 0.703941 0.71038 0.691506 0.691111 0.693672
          0.699125 0.697816 0.686073 0.687925 0.685836 0.693102
          0.697931 0.689787 0.688505 0.610335 0.701088 0.703035
          0.706438 0.686703 0.696288 0.713532 0.700826 0.688101
          0.702343 0.705741 0.698503 0.702202 0.698456 0.720927
          0.687719 0.697014 0.701592 0.693648 0.694882 0.704397
          0.703604 0.677902 0.700135 0.696917 0.696317 0.710799
          0.702681 0.697894 0.69125 0.703088 0.693292 0.697042
          0.586475 0.682793 0.686116 0.705252 0.685675 0.688179
          0.70097 0.705048 0.694986 0.700585 0.683293 0.683605
          0.699719 0.70142 0.71957 0.69471 0.701953 0.698473
          0.696045 0.702988 0.695044 0.690339 0.698932 0.702195
          0.695393 0.698896 0.68412 0.698101 0.698771 0.687248
          0.681732 0.705597 0.706774 0.578461 0.700789 0.696164
          0.697764 0.679299 0.683012 0.684445 0.68696 0.696518
          0.703887 0.70455 0.686451 0.71179 0.692637 0.70666
          0.698206 0.697002 0.693127 0.692808 0.701387 0.714941
          0.710105 0.704166 0.724662 0.723322 0.715066 0.713524
          0.719448 0.710818 0.69397 0.701241 0.710547 0.706586
          0.586428 0.683568 0.703463 0.693769 0.683477 0.683635
          0.68746 0.706702 0.688604 0.708747 0.696151 0.693553
          0.705103 0.68609 0.700844 0.700289 0.712808 0.706792
          0.706684 0.704836 0.713902 0.712265 0.700459 0.70676
          0.689395 0.690934 0.685178 0.699378 0.691309 0.702726
          0.698798 0.684071 0.703891 0.591918 0.692254 0.681846
          0.686129 0.691454 0.694712 0.698537 0.686495 0.695465
          0.70209 0.709489 0.70853 0.696458 0.709684 0.706885
          0.706893 0.706452 0.698158 0.689423 0.709628 0.701968
          0.681381 0.707935 0.677793 0.685 0.693218 0.689896
          0.687133 0.694428 0.686925 0.700455 0.690113 0.683711
          0.603507 0.709224 0.683504 0.699739 0.713063 0.707834
          0.700781 0.687928 0.711181 0.690365 0.694911 0.697175
          0.696518 0.708182 0.69906 0.722292 0.705118 0.679314
          0.709183 0.68958 0.690153 0.715907 0.696369 0.703529
          0.716573 0.718782 0.701027 0.693044 0.713188 0.702725
          0.719814 0.720866 0.720367 0.604407 0.700556 0.69358
          0.714834 0.695185 0.698121 0.696354 0.70715 0.700574
          0.69472 0.700611 0.705532 0.686655 0.706458 0.688852
          0.708924 0.714434 0.692009 0.695183 0.693648 0.710303
          0.689696 0.694686 0.699666 0.712083 0.703866 0.691929
          0.713423 0.727183 0.712022 0.722884 0.70886 0.713181
          0.586075 0.675544 0.702676 0.686658 0.678377 0.687793
          0.69532 0.702951 0.691423 0.699548 0.68316 0.68885
          0.699851 0.685302 0.711707 0.692857 0.712051 0.702625
          0.692935 0.695647 0.705946 0.701517 0.689985 0.707514
          0.700757 0.697736 0.716542 0.709532 0.70181 0.701369
          0.702172 0.696843 0.702497 0.597153 0.703456 0.686937
          0.69658 0.708531 0.709768 0.694054 0.703793 0.69293
          0.705354 0.697493 0.713923 0.694553 0.708924 0.698973
          0.698662 0.704054 0.696387 0.691179 0.690424 0.697546
          0.708533 0.700587 0.703214 0.70921 0.715438 0.69938
          0.714585 0.710914 0.70103 0.708925 0.710123 0.708353
          0.586323 0.678719 0.6949 0.689361 0.677869 0.677192
          0.687213 0.70602 0.695608 0.688668 0.696255 0.698748
          0.701154 0.690788 0.694766 0.711858 0.699087 0.691428
          0.69024 0.709461 0.701271 0.690941 0.683299 0.685257
          0.69063 0.675239 0.690275 0.697398 0.680726 0.692915
          0.693305 0.686932 0.69324 0.591653 0.703728 0.695138
          0.686949 0.717892 0.691206 0.703893 0.698476 0.702069
          0.690009 0.695174 0.705797 0.699185 0.703765 0.697532
          0.705737 0.691639 0.697986 0.700063 0.701081 0.683169
          0.693018 0.683167 0.695437 0.693118 0.700043 0.704798
          0.685299 0.706157 0.686878 0.688856 0.690782 0.693384
          0.613879 0.704894 0.702088 0.690836 0.713339 0.692527
          0.704191 0.705746 0.694261 0.695284 0.699575 0.713062
          0.686533 0.698803 0.710113 0.708035 0.700745 0.699477
          0.693296 0.702226 0.701414 0.696545 0.680631 0.689686
          0.692063 0.703447 0.684522 0.68165 0.692236 0.673548
          0.684711 0.705539 0.682547 0.610693 0.714181 0.698145
          0.698397 0.715645 0.683094 0.69952 0.703882 0.700703
          0.69145 0.695307 0.697897 0.696292 0.69841 0.685399
          0.685454 0.70739 0.685137 0.705843 0.699665 0.688195
          0.681904 0.672591 0.697299 0.687028 0.701221 0.686818
          0.698895 0.70907 0.69203 0.702209 0.680346 0.684437
          0.580994 0.678827 0.701992 0.691752 0.693808 0.682231
          0.691605 0.686812 0.686049 0.701709 0.694596 0.677456
          0.722987 0.696578 0.700898 0.694205 0.714345 0.708082
          0.697859 0.690677 0.712296 0.714575 0.711985 0.722274
          0.714923 0.718731 0.700004 0.72376 0.70846 0.706023
          0.71459 0.711183 0.709045 0.580507 0.673866 0.688195
          0.680102 0.67504 0.692105 0.69809 0.703839 0.691647
          0.712964 0.700857 0.697388 0.698747 0.70536 0.695394
          0.697407 0.701269 0.713978 0.690688 0.701377 0.683584
          0.697599 0.689502 0.690736 0.701168 0.693979 0.69703
          0.68971 0.691232 0.694057 0.687297 0.697412 0.683133
          0.580882 0.690782 0.705836 0.694931 0.702337 0.683365
          0.677191 0.693016 0.6951 0.695768 0.692974 0.69439
          0.694273 0.697425 0.702073 0.708042 0.704127 0.698565
          0.696413 0.704106 0.711192 0.728821 0.712766 0.713227
          0.704061 0.707672 0.7184 0.705638 0.709427 0.718395
          0.723679 0.704625 0.703937 0.585175 0.698576 0.706118
          0.689358 0.693942 0.693402 0.701062 0.687707 0.694977
          0.714125 0.687309 0.688055 0.707458 0.695099 0.7021
          0.697944 0.710104 0.706726 0.694739 0.70632 0.702605
          0.703308 0.700229 0.699954 0.70681 0.688599 0.692321
          0.688434 0.692492 0.687869 0.675657 0.696769 0.682327
          0.599702 0.694391 0.705279 0.702457 0.697978 0.693291
          0.705672 0.690752 0.693606 0.701825 0.699294 0.694797
          0.690741 0.690731 0.704704 0.704261 0.69586 0.708612
          0.700843 0.700261 0.702011 0.704024 0.701064 0.698779
          0.689763 0.704698 0.694546 0.707708 0.696187 0.698298
          0.706928 0.690151 0.688836 0.600436 0.686404 0.699157
          0.708801 0.697079 0.701824 0.702493 0.706359 0.680895
          0.696873 0.691401 0.684043 0.711983 0.700113 0.703427
          0.68972 0.692343 0.692793 0.694199 0.703229 0.708915
          0.685737 0.700437 0.693971 0.711729 0.714184 0.709313
          0.695428 0.706467 0.704261 0.684936 0.694221 0.69832
          0.60873 0.697832 0.695801 0.701273 0.679794 0.697435
          0.684022 0.697053 0.689129 0.680382 0.686105 0.693846
          0.7026 0.709929 0.687257 0.692907 0.708455 0.707896
          0.706001 0.69661 0.69337 0.70135 0.706404 0.6991
          0.708095 0.699279 0.68582 0.720589 0.71776 0.701921
          0.700367 0.693446 0.70808 0.597523 0.698264 0.678284
          0.681988 0.696161 0.682532 0.697995 0.686293 0.709604
          0.680148 0.694759 0.68812 0.686363 0.712681 0.702533
          0.694417 0.693825 0.700616 0.703724 0.713664 0.682182
          0.68812 0.702318 0.678203 0.686771 0.701224 0.690724
          0.687396 0.69458 0.679765 0.702165 0.689541 0.68856
          0.603608 0.716891 0.706765 0.697295 0.706234 0.713571
          0.694309 0.698637 0.69957 0.701522 0.701657 0.698301
          0.688731 0.701297 0.696221 0.705248 0.691368 0.69255
          0.700651 0.711483 0.673589 0.677911 0.678058 0.690296
          0.69266 0.692628 0.687398 0.688492 0.678767 0.694374
          0.696774 0.702284 0.687257 0.598137 0.698064 0.690869
          0.70241 0.687201 0.695464 0.701842 0.698532 0.689194
          0.699354 0.6967 0.704797 0.711871 0.695093 0.701722
          0.703843 0.694847 0.684865 0.701015 0.705248 0.696335
          0.709293 0.696076 0.69906 0.712489 0.694402 0.700683
          0.701996 0.699478 0.693863 0.68164 0.694749 0.691077
          0.613247 0.69317 0.711395 0.695823 0.692377 0.697754
          0.695709 0.6948 0.701827 0.697002 0.695843 0.697536
          0.701705 0.701041 0.702737 0.698027 0.702458 0.702523
          0.679957 0.689442 0.706424 0.707222 0.709808 0.710398
          0.718482 0.710023 0.703508 0.708486 0.724941 0.700012
          0.705847 0.714997 0.70457 0.581671 0.678071 0.688449
          0.685986 0.683209 0.686643 0.699157 0.680154 0.698328
          0.695095 0.694099 0.693428 0.705025 0.69441 0.694586
          0.691682 0.703756 0.71321 0.705717 0.696759 0.721094
          0.719714 0.7107 0.719754 0.710111 0.702532 0.706396
          0.715577 0.69538 0.70842 0.718661 0.725503 0.714499
          0.585403 0.678037 0.69675 0.675076 0.692453 0.694374
          0.694975 0.687603 0.697987 0.68528 0.690042 0.699274
          0.699025 0.704167 0.705709 0.690522 0.709266 0.692393
          0.701913 0.689787 0.706852 0.718716 0.704406 0.712393
          0.712976 0.712873 0.710457 0.712162 0.712519 0.718513
          0.70519 0.722685 0.718333 0.605232 0.713621 0.703958
          0.692891 0.695204 0.699317 0.709567 0.715305 0.692742
          0.691441 0.704062 0.695403 0.700335 0.695445 0.696692
          0.692701 0.711431 0.705678 0.700488 0.702316 0.701961
          0.706639 0.702 0.706947 0.699297 0.719092 0.715731
          0.711507 0.699657 0.708826 0.698509 0.715746 0.713668
          0.602633 0.688274 0.712495 0.691877 0.702172 0.688094
          0.70705 0.701951 0.719296 0.688419 0.691726 0.709835
          0.7131 0.696732 0.700999 0.709675 0.699675 0.705906
          0.70019 0.692648 0.707347 0.71219 0.714764 0.705194
          0.71929 0.704361 0.720701 0.71895 0.691965 0.696191
          0.694915 0.698198 0.696087 0.592161 0.684501 0.673881
          0.689581 0.706899 0.684889 0.676634 0.710244 0.692875
          0.716113 0.687591 0.708683 0.700187 0.708033 0.70269
          0.697916 0.685628 0.71217 0.701669 0.71227 0.715822
          0.713882 0.708296 0.704422 0.703697 0.714329 0.699714
          0.699492 0.709268 0.714128 0.715699 0.70274 0.710304
          0.609255 0.696558 0.700072 0.693281 0.706897 0.700374
          0.697746 0.705701 0.687969 0.698582 0.698803 0.693504
          0.712233 0.696638 0.694344 0.712348 0.707065 0.703462
          0.695772 0.697136 0.729893 0.71734 0.70411 0.699793
          0.708143 0.697891 0.707714 0.718982 0.70385 0.706293
          0.708853 0.713034 0.713945 0.58177 0.675973 0.693846
          0.693368 0.684928 0.693342 0.68136 0.683559 0.70506
          0.708866 0.704423 0.708083 0.691352 0.695491 0.689922
          0.69496 0.708029 0.694933 0.715356 0.690052 0.718978
          0.714972 0.698551 0.698076 0.718813 0.725785 0.707663
          0.708898 0.712051 0.705925 0.695728 0.706388 0.706888
          0.605102 0.7291 0.691179 0.707117 0.699676 0.683738
          0.704723 0.689665 0.686938 0.695651 0.718007 0.704826
          0.69095 0.707527 0.691963 0.714505 0.702282 0.68886
          0.697566 0.699379 0.701668 0.706075 0.710554 0.700176
          0.715097 0.714276 0.705447 0.702537 0.703374 0.700838
          0.72019 0.7094 0.719363 0.593763 0.690582 0.703001
          0.704496 0.686266 0.69122 0.695454 0.703748 0.699036
          0.696414 0.693702 0.690889 0.712577 0.680217 0.711992
          0.70204 0.703634 0.708082 0.697038 0.697966 0.693738
          0.708872 0.699652 0.710678 0.705977 0.701297 0.706278
          0.709559 0.70219 0.693703 0.695258 0.694947 0.703158
          0.599052 0.694941 0.688574 0.701037 0.690205 0.693931
          0.706357 0.705521 0.698824 0.708093 0.699752 0.697095
          0.710819 0.703359 0.706805 0.710225 0.690781 0.69943
          0.697182 0.696306 0.689469 0.711407 0.707602 0.710313
          0.691979 0.693089 0.6922 0.693798 0.695715 0.692376
          0.697807 0.693046 0.687625 0.617632 0.706259 0.703812
          0.703914 0.702359 0.707795 0.698722 0.697389 0.704906
          0.701261 0.694143 0.710405 0.68887 0.709339 0.706464
          0.70759 0.703022 0.680738 0.708002 0.709942 0.695399
          0.700031 0.685127 0.682285 0.695272 0.704055 0.692379
          0.709713 0.692322 0.694632 0.692314 0.696296 0.701295
          0.600261 0.701131 0.702619 0.710443 0.697267 0.694822
          0.701308 0.698468 0.705987 0.699813 0.688638 0.704013
          0.694848 0.709327 0.691068 0.704828 0.707069 0.682597
          0.702291 0.714446 0.69415 0.686976 0.713494 0.685325