<?xml version="1.0"?>
<VTKFile type="PolyData" version="0.1" byte_order="LittleEndian" header_type="UInt32" compressor="vtkZLibDataCompressor">
  <PolyData>
    <Piece NumberOfPoints="8160" NumberOfVerts="0" NumberOfLines="0" NumberOfStrips="0" NumberOfPolys="0">
      <PointData Scalars="Calcium Concentration">
        <DataArray type="Float32" Name="Calcium Concentration" format="ascii" RangeMin="0.40560999512672424" RangeMax="0.7359730005264282">
          0.429318 0.704681 0.700463 0.694759 0.704544 0.697717
          0.694031 0.697572 0.69261 0.701792 0.691131 0.710438
          0.698275 0.70625 0.684888 0.696193 0.691919 0.716007
          0.716396 0.695899 0.702567 0.677122 0.690822 0.690474
          0.683117 0.687105 0.69312 0.70493 0.692923 0.67853
          0.703695 0.698421 0.689708 0.697588 0.43761 0.701097
          0.696414 0.688885 0.700963 0.705379 0.693765 0.694155
          0.723712 0.704078 0.701429 0.709939 0.692716 0.69053
          0.697196 0.700307 0.701851 0.705705 0.701661 0.704414
          0.695985 0.690421 0.687348 0.680811 0.678696 0.703348
          0.694977 0.688378 0.685654 0.706822 0.703138 0.685974
          0.690196 0.688893 0.426311 0.68224 0.682155 0.68563
          0.679465 0.681834 0.697649 0.697629 0.690035 0.712845
          0.683888 0.712391 0.718289 0.698332 0.711142 0.705019
          0.717238 0.720584 0.724151 0.698249 0.711395 0.710171
          0.714161 0.714271 0.707004 0.709659 0.709136 0.711713
          0.705586 0.713055 0.698597 0.704652 0.708883 0.702274
          0.42716 0.693696 0.705807 0.688606 0.699227 0.695985
          0.706834 0.689627 0.715453 0.705956 0.693114 0.690002
          0.690979 0.701721 0.693463 0.694836 0.696924 0.702484
          0.711178 0.699057 0.709685 0.693536 0.694239 0.698163
          0.694607 0.699526 0.702619 0.701912 0.704145 0.703478
          0.696563 0.693766 0.691954 0.69386 0.416931 0.674438
          0.69235 0.697172 0.677918 0.690582 0.690793 0.688384
          0.704043 0.699089 0.699286 0.68752 0.6954 0.701946
          0.688444 0.709832 0.706511 0.70415 0.712277 0.688929
          0.692051 0.6917 0.699841 0.675583 0.690647 0.685742
          0.691331 0.687292 0.695829 0.694218 0.683075 0.698495
          0.699604 0.683465 0.440999 0.70774 0.698511 0.696283
          0.686953 0.70775 0.709105 0.703406 0.691511 0.689787
          0.690982 0.700217 0.70381 0.697431 0.699437 0.698371
          0.699421 0.692254 0.713493 0.696883 0.699783 0.711167
          0.703919 0.696348 0.709695 0.723421 0.711163 0.703763
          0.69781 0.707426 0.70739 0.706455 0.701651 0.704631
          0.426003 0.681777 0.700886 0.689151 0.675715 0.700257
          0.679483 0.68871 0.705872 0.707246 0.682364 0.699966
          0.69379 0.700263 0.697556 0.70633 0.709152 0.709528
          0.710686 0.695939 0.711561 0.704347 0.699217 0.691378
          0.70091 0.71891 0.715017 0.713718 0.718967 0.704699
          0.71844 0.714281 0.708418 0.701457 0.42021 0.683789
          0.68518 0.693859 0.686299 0.696227 0.690295 0.675189
          0.692079 0.702366 0.723027 0.705604 0.696597 0.708203
          0.683748 0.702703 0.696331 0.710316 0.70886 0.689842
          0.687935 0.693033 0.69303 0.678294 0.691759 0.690012
          0.699294 0.684728 0.693798 0.682968 0.700138 0.677103
          0.681512 0.690076 0.412235 0.683518 0.678054 0.685131
          0.671499 0.688922 0.686001 0.705475 0.702149 0.688932
          0.705302 0.699996 0.704954 0.709863 0.690665 0.7076
          0.714132 0.693339 0.713691 0.682053 0.705483 0.707064
          0.703956 0.705502 0.705345 0.718268 0.699078 0.709496
          0.704822 0.710256 0.712159 0.70831 0.712004 0.709099
          0.420096 0.699668 0.695135 0.692826 0.687849 0.702026
          0.708792 0.69709 0.708102 0.702041 0.711979 0.689846
          0.690857 0.704995 0.70669 0.68896 0.69741 0.712396
          0.717312 0.698909 0.707079 0.695853 0.690498 0.703479
          0.719993 0.711089 0.702399 0.70932 0.710691 0.699577
          0.707459 0.691894 0.704465 0.721173 0.437095 0.692296
          0.704715 0.707026 0.681783 0.70916 0.693652 0.701326
          0.708154 0.703268 0.704919 0.70049 0.703134 0.699273
          0.688671 0.697566 0.696406 0.700005 0.702495 0.704911
          0.699508 0.711675 0.705453 0.703588 0.700987 0.707503
          0.711939 0.697297 0.713308 0.699528 0.719997 0.709019
          0.714836 0.7154 0.421387 0.683766 0.692143 0.694454
          0.679927 0.693677 0.687373 0.702105 0.702068 0.700476
          0.696024 0.704599 0.70379 0.69235 0.691949 0.693481
          0.704947 0.700093 0.697209 0.703495 0.680313 0.69927
          0.702082 0.676826 0.681329 0.702425 0.689236 0.694154
          0.678584 0.68892 0.691001 0.693322 0.693693 0.695759
          0.428502 0.695895 0.694819 0.703247 0.690886 0.703191
          0.704863 0.696079 0.704684 0.699614 0.702049 0.70341
          0.706596 0.694754 0.714623 0.699563 0.697617 0.705864
          0.698313 0.703494 0.69009 0.684965 0.69978 0.686184
          0.694906 0.697386 0.686821 0.690258 0.707255 0.691355
          0.693552 0.691736 0.697257 0.695246 0.434018 0.689592
          0.687313 0.698809 0.707509 0.688944 0.706514 0.691687
          0.687491 0.695916 0.701904 0.699519 0.696592 0.696251
          0.706195 0.703014 0.693305 0.707816 0.7225 0.695816
          0.698786 0.693226 0.679592 0.686908 0.685452 0.699969
          0.680119 0.692622 0.699109 0.689398 0.688254 0.6846
          0.684951 0.688766 0.410779 0.673125 0.688817 0.694811
          0.691744 0.687619 0.682713 0.69136 0.688083 0.702204
          0.693858 0.713723 0.68827 0.701037 0.700064 0.686686
          0.701886 0.698931 0.696529 0.694436 0.71822 0.711248
          0.711873 0.696156 0.706822 0.715031 0.717847 0.717371
          0.707392 0.724801 0.71422 0.72425 0.715574 0.68993
          0.417344 0.695816 0.687364 0.690676 0.702586 0.714156
          0.694855 0.691464 0.686369 0.702269 0.69107 0.692938
          0.694577 0.703437 0.692076 0.702067 0.691029 0.702991
          0.6942 0.699728 0.692861 0.680619 0.700268 0.687664
          0.699929 0.695651 0.691047 0.695587 0.689611 0.686321
          0.689182 0.693373 0.690559 0.690983 0.424343 0.675099
          0.684961 0.691772 0.690543 0.695731 0.688928 0.699016
          0.688643 0.685193 0.69473 0.709081 0.696165 0.700186
          0.713467 0.700154 0.703195 0.701913 0.706894 0.688519
          0.689584 0.695634 0.698707 0.694902 0.69629 0.68506
          0.699322 0.697968 0.699407 0.701806 0.709576 0.696036
          0.690825 0.694777 0.409245 0.686942 0.683847 0.676915
          0.680651 0.688369 0.688603 0.708918 0.702435 0.70088
          0.709401 0.707905 0.699073 0.703384 0.69862 0.706888
          0.692491 0.707193 0.702329 0.696248 0.697683 0.704748
          0.704196 0.708078 0.712779 0.725767 0.686755 0.700509
          0.701237 0.706168 0.709439 0.701652 0.714133 0.71701
          0.410874 0.68854 0.689863 0.689057 0.685462 0.677189
          0.678324 0.697177 0.689601 0.702667 0.684002 0.696079
          0.699875 0.690183 0.691455 0.697119 0.690478 0.70906
          0.703313 0.696599 0.692232 0.694288 0.685065 0.68786
          0.682245 0.700541 0.691651 0.689111 0.691476 0.69316
          0.703103 0.686819 0.696707 0.700999 0.427185 0.697842
          0.691258 0.707006 0.696039 0.689813 0.705457 0.704419
          0.70349 0.700844 0.706536 0.710588 0.70188 0.696628
          0.700973 0.697517 0.698895 0.69335 0.718759 0.698825
          0.693895 0.690761 0.682468 0.679638 0.697158 0.691239
          0.694951 0.688929 0.704313 0.68586 0.689914 0.683634
          0.682992 0.692751 0.425076 0.715652 0.688489 0.695315
          0.701899 0.700203 0.699884 0.711374 0.68589 0.699025
          0.709047 0.703089 0.705852 0.715167 0.685567 0.70297
          0.705853 0.689919 0.718986 0.692611 0.700035 0.694682
          0.678302 0.69435 0.700816 0.697415 0.68628 0.689656
          0.696993 0.700183 0.696749 0.68484 0.706215 0.706892
          0.437974 0.681333 0.699646 0.697968 0.698657 0.705186
          0.720505 0.696001 0.697719 0.703946 0.688973 0.698304
          0.705017 0.69138 0.712118 0.69411 0.698462 0.7006
          0.703302 0.696596 0.706714 0.69684 0.716465 0.705104
          0.697725 0.719929 0.709297 0.695297 0.7108 0.717499
          0.719426 0.701984 0.701032 0.692027 0.420584 0.702426
          0.68313 0.713817 0.698836 0.691813 0.713895 0.707582
          0.685222 0.697182 0.701623 0.696461 0.704662 0.702239
          0.690515 0.702643 0.692903 0.709223 0.707833 0.703412
          0.720871 0.710102 0.707616 0.717106 0.709073 0.700445
          0.700793 0.702559 0.695991 0.709513 0.716283 0.711302
          0.713639 0.724738 0.435427 0.716271 0.700784 0.698014
          0.70504 0.691229 0.70061 0.707455 0.694933 0.69656
          0.701634 0.688513 0.69859 0.703747 0.698743 0.692644
          0.699283 0.709137 0.695339 0.687698 0.703564 0.702837
          0.719361 0.712894 0.719677 0.720021 0.717264 0.716188
          0.719931 0.691958 0.7157 0.700659 0.700378 0.718665
          0.419568 0.68561 0.688974 0.712959 0.707634 0.674746
          0.716617 0.697518 0.697788 0.708089 0.701218 0.702814
          0.68791 0.696527 0.706623 0.696071 0.704262 0.697145
          0.719813 0.706237 0.69204 0.6855 0.687165 0.690203
          0.683337 0.688992 0.682349 0.695238 0.705081 0.706172
          0.695248 0.683971 0.685098 0.698317 0.430371 0.682481
          0.689777 0.693161 0.693791 0.705389 0.702039 0.703017
          0.689592 0.69778 0.697806 0.695634 0.696271 0.69333
          0.705046 0.695177 0.697388 0.693937 0.695128 0.699143
          0.703791 0.687209 0.68187 0.685993 0.688472 0.686276
          0.702041 0.698745 0.710401 0.707795 0.687249 0.695361
          0.700609 0.676009 0.434768 0.695627 0.697271 0.693667
          0.702495 0.713168 0.69692 0.698158 0.691326 0.703016
          0.700238 0.68846 0.699535 0.711461 0.688311 0.698284
          0.701142 0.702833 0.703281 0.699871 0.69251 0.687839
          0.676223 0.694018 0.70473 0.694212 0.682004 0.687889
          0.684399 0.679374 0.697029 0.678066 0.688728 0.688678
          0.422982 0.694413 0.683017 0.693741 0.691148 0.704482
          0.695401 0.695426 0.695607 0.698056 0.701753 0.679412
          0.695557 0.675023 0.695686 0.702164 0.714097 0.692653
          0.71213 0.700072 0.696963 0.696954 0.690664 0.683925
          0.696079 0.683928 0.693631 0.686719 0.686666 0.695001
          0.697411 0.70024 0.681632 0.706958 0.425698 0.702408
          0.685943 0.712754 0.698507 0.695276 0.697645 0.70064
          0.682543 0.717228 0.682802 0.68305 0.702898 0.680553
          0.713225 0.70166 0.696046 0.71266 0.71271 0.696487
          0.69441 0.689054 0.6826 0.704528 0.685237 0.690974
          0.696166 0.684392 0.709554 0.685799 0.681882 0.702808
          0.702057 0.686099 0.432052 0.691445 0.684066 0.705726
          0.702119 0.700185 0.706672 0.685977 0.709532 0.710498
          0.704839 0.689931 0.693632 0.716945 0.697834 0.707104
          0.690395 0.68865 0.706688 0.69528 0.689175 0.696075
          0.684651 0.699338 0.692876 0.700305 0.698392 0.709301
          0.702568 0.702145 0.701748 0.681846 0.679799 0.690714
          0.425095 0.681843 0.698151 0.684975 0.673851 0.688974
          0.697514 0.702619 0.674371 0.698108 0.693015 0.696556
          0.689932 0.697117 0.701109 0.695501 0.697734 0.706139
          0.690825 0.707873 0.697098 0.713317 0.718352 0.718079
          0.714212 0.706978 0.710974 0.699167 0.707217 0.70232
          0.70488 0.712201 0.695049 0.714555 0.414896 0.680455
          0.685772 0.692634 0.6909 0.69491 0.70363 0.698653
          0.684586 0.68117 0.694002 0.698926 0.70087 0.697933
          0.700669 0.702891 0.697389 0.702643 0.707403 0.707833
          0.712443 0.723478 0.711791 0.705983 0.705057 0.721224
          0.705805 0.718029 0.705426 0.714158 0.70996 0.703403
          0.711255 0.708375 0.430228 0.697929 0.678768 0.693322
          0.709005 0.704379 0.725844 0.690462 0.7009 0.708556
          0.710164 0.686524 0.705724 0.707034 0.684451 0.687283
          0.692741 0.698944 0.714118 0.695304 0.698962 0.703263
          0.713371 0.711773 0.704117 0.712382 0.707937 0.712608
          0.695592 0.708457 0.724759 0.717353 0.713646 0.710469
          0.412519 0.675219 0.685257 0.694101 0.676269 0.685292
          0.693105 0.690431 0.686849 0.70215 0.701767 0.706753
          0.701014 0.705731 0.694755 0.702853 0.703651 0.700586
          0.712257 0.693718 0.698452 0.697818 0.693756 0.701203
          0.70483 0.682314 0.696692 0.698659 0.69026 0.689649
          0.691326 0.690354 0.697515 0.690189 0.434519 0.689476
          0.695867 0.680797 0.679933 0.689453 0.691021 0.679257
          0.703503 0.702798 0.700047 0.704284 0.702763 0.700576
          0.706076 0.7014 0.705459 0.702551 0.700146 0.704556
          0.697748 0.704261 0.689602 0.701347 0.684281 0.687885
          0.708247 0.696238 0.701009 0.695743 0.68901 0.696452
          0.694682 0.690712 0.41545 0.674038 0.691972 0.707849
          0.688884 0.687974 0.694162 0.702007 0.702474 0.693655
          0.680635 0.700665 0.697869 0.69109 0.700323 0.697515
          0.694483 0.6983 0.700675 0.701162 0.695285 0.705155
          0.694266 0.712477 0.703946 0.696239 0.691726 0.696633
          0.706906 0.707352 0.702381 0.685203 0.689281 0.68604
          0.415233 0.689587 0.698593 0.71044 0.695792 0.704597
          0.701203 0.700624 0.697743 0.7023 0.689655 0.705608
          0.694563 0.686941 0.698196 0.706713 0.70418 0.699111
          0.693636 0.702847 0.693997 0.695577 0.702127 0.678188
          0.694412 0.703042 0.677823 0.692782 0.701752 0.697624
          0.687664 0.683713 0.684897 0.679953 0.422002 0.668158
          0.695603 0.685563 0.695327 0.69349 0.681792 0.690451
          0.69832 0.704547 0.686734 0.70747 0.697764 0.684917
          0.691409 0.709443 0.701398 0.696147 0.704271 0.693339
          0.695954 0.69184 0.718965 0.711139 0.70128 0.705408
          0.724802 0.709921 0.724142 0.713206 0.708091 0.70506
          0.71829 0.711753 0.428956 0.707341 0.695138 0.693654
          0.696636 0.70231 0.704011 0.693137 0.701775 0.701234
          0.688109 0.702425 0.706779 0.6932 0.69605 0.699887
          0.687601 0.708639 0.710849 0.702662 0.709152 0.691643
          0.689362 0.704764 0.705972 0.6952 0.70938 0.693591
          0.684119 0.707255 0.691413 0.691347 0.683313 0.685193
          0.423738 0.693053 0.688023 0.707337 0.700855 0.698255
          0.702172 0.698004 0.707215 0.704689 0.707511 0.688205
          0.702515 0.690022 0.702592 0.694852 0.694174 0.692197
          0.701233 0.690081 0.700744 0.70271 0.698718 0.690588
          0.701188 0.68892 0.677868 0.677902 0.692581 0.704264
          0.713796 0.689928 0.67939 0.696822 0.424438 0.685368
          0.69401 0.689933 0.701783 0.695706 0.695252 0.690386
          0.705434 0.701363 0.68371 0.714086 0.709688 0.690583
          0.689017 0.69973 0.700117 0.698691 0.685106 0.709694
          0.692451 0.691076 0.695259 0.700466 0.685517 0.685755
          0.709116 0.701232 0.703975 0.694762 0.684638 0.685715
          0.691618 0.701437 0.44067 0.710475 0.707652 0.696118
          0.686512 0.702716 0.700412 0.701349 0.67889 0.697798
          0.705461 0.685654 0.710163 0.702457 0.681452 0.703386
          0.69745 0.685473 0.701365 0.702797 0.705894 0.704196
          0.701255 0.702352 0.696821 0.725726 0.709515 0.708051
          0.715363 0.707854 0.700905 0.698902 0.704667 0.71527
          0.416733 0.697255 0.704985 0.701963 0.705836 0.688755
          0.712725 0.700258 0.702503 0.685476 0.696486 0.697564
          0.690245 0.714815 0.701034 0.683972 0.697655 0.700585
          0.721893 0.697455 0.679167 0.700784 0.6938 0.693717
          0.679832 0.704864 0.688818 0.690743 0.676103 0.704273
          0.701076 0.698867 0.690104 0.688183 0.427398 0.695383
          0.721603 0.707087 0.691634 0.694599 0.693021 0.712824
          0.697664 0.695117 0.705353 0.692957 0.71349 0.693859
          0.69306 0.704717 0.708794 0.702515 0.710948 0.699265
          0.703282 0.70942 0.70495 0.703791 0.709241 0.724548
          0.721871 0.708755 0.712928 0.722427 0.705653 0.706427
          0.71663 0.703403 0.419021 0.668071 0.694469 0.701548
          0.70162 0.698628 0.688736 0.698227 0.695088 0.700447
          0.680262 0.691306 0.674719 0.696063 0.703016 0.697614
          0.695375 0.712992 0.69764 0.692893 0.718989 0.702774
          0.71829 0.71661 0.708655 0.712282 0.710988 0.717868
          0.715765 0.719645 0.712207 0.718001 0.716969 0.695231
          0.414784 0.669054 0.681883 0.674631 0.687867 0.691825
          0.701872 0.694704 0.689668 0.696007 0.705744 0.694382
          0.703505 0.688984 0.69889 0.695907 0.705337 0.703002
          0.703329 0.687483 0.705893 0.70681 0.712681 0.696256
          0.703303 0.717457 0.705536 0.702181 0.70539 0.714969
          0.701404 0.714077 0.7118 0.724375 0.415392 0.684093
          0.682379 0.690368 0.684966 0.690526 0.69533 0.686843
          0.688538 0.720797 0.703218 0.69482 0.700531 0.703709
          0.703587 0.705886 0.69372 0.707911 0.71052 0.696936
          0.718962 0.714316 0.721914 0.713854 0.688718 0.710073
          0.697435 0.713349 0.711001 0.715421 0.703988 0.70668
          0.71379 0.70931 0.440692 0.704946 0.701336 0.705663
          0.702231 0.715265 0.688666 0.698271 0.713181 0.689376
          0.707696 0.686104 0.697619 0.712916 0.687963 0.699297
          0.691864 0.697904 0.699684 0.690288 0.705743 0.704641
          0.700684 0.712716 0.695592 0.712951 0.707265 0.706308
          0.709136 0.705567 0.716228 0.709467 0.697674 0.720347
          0.40561 0.673962 0.68998 0.686253 0.686087 0.686407
          0.701981 0.687636 0.680404 0.67996 0.697973 0.689138
          0.7073 0.696002 0.71052 0.704663 0.690261 0.697166
          0.708467 0.710988 0.69267 0.698321 0.684511 0.692272
          0.695998 0.697362 0.69365 0.693945 0.693987 0.702944
          0.693742 0.699546 0.691529 0.686159 0.442509 0.682816
          0.708539 0.693968 0.69459 0.702609 0.706343 0.684713
          0.688476 0.71146 0.702214 0.694679 0.713799 0.676543
          0.706112 0.697494 0.700713 0.706903 0.710488 0.720271
          0.699542 0.694888 0.69652 0.688246 0.701647 0.690984
          0.71203 0.714427 0.701307 0.680846 0.701779 0.700824
          0.69085 0.684428 0.430078 0.683002 0.70157 0.683735
          0.678059 0.693775 0.677976 0.710069 0.699648 0.691503
          0.675196 0.690591 0.689931 0.710949 0.71548 0.70504
          0.699757 0.706411 0.700961 0.712942 0.698127 0.686348
          0.688181 0.687829 0.693487 0.693112 0.691358 0.688292
          0.695424 0.699794 0.681637 0.686848 0.697767 0.704878
          0.42088 0.668474 0.684042 0.68808 0.694274 0.68622
          0.685493 0.705962 0.692882 0.705271 0.685123 0.702843
          0.700639 0.690795 0.708875 0.71148 0.694631 0.681266
          0.700826 0.698627 0.705704 0.711499 0.708726 0.721282
          0.720007 0.720422 0.724285 0.711341 0.708493 0.704251
          0.701857 0.711829 0.723514 0.691569 0.426449 0.671092
          0.690328 0.692978 0.685107 0.682777 0.681652 0.692846
          0.702865 0.688506 0.695994 0.696983 0.708585 0.683505
          0.69496 0.709339 0.694317 0.694269 0.691862 0.698546
          0.702452 0.707449 0.702486 0.697202 0.701634 0.690294
          0.695023 0.698256 0.702105 0.68621 0.687717 0.699282
          0.704634 0.688681 0.423764 0.680562 0.691825 0.683604
          0.687923 0.688999 0.701028 0.685328 0.681364 0.697045
          0.709368 0.685349 0.695161 0.695233 0.691593 0.692745
          0.687029 0.70118 0.708751 0.71421 0.714466 0.693093
          0.700922 0.693159 0.679425 0.69652 0.702096 0.696021
          0.686988 0.69185 0.685964 0.683493 0.697474 0.692016
          0.421446 0.705832 0.687946 0.716365 0.693858 0.687958
          0.697732 0.696422 0.69435 0.705849 0.704937 0.706787
          0.707183 0.708727 0.687646 0.700817 0.696364 0.701394
          0.725643 0.690678 0.702884 0.712567 0.694359 0.711225
          0.719166 0.72301 0.721084 0.709507 0.696947 0.709728
          0.725562 0.708363 0.715058 0.730779 0.429196 0.693786
          0.689493 0.712748 0.700476 0.710167 0.709862 0.687361
          0.706123 0.693073 0.705299 0.698669 0.709195 0.695734
          0.693316 0.705792 0.704267 0.695068 0.709279 0.69918
          0.698697 0.70355 0.701168 0.697833 0.725287 0.692667
          0.702914 0.7053 0.710298 0.696164 0.725547 0.706204
          0.714379 0.704599 0.417604 0.671049 0.700346 0.692926
          0.686559 0.685265 0.683958 0.694745 0.700027 0.702995
          0.684781 0.68745 0.709131 0.680302 0.708627 0.694537
          0.693773 0.7001 0.702681 0.69237 0.710687 0.698869
          0.691798 0.701635 0.703782 0.697653 0.692458 0.712912
          0.699786 0.713734 0.693271 0.714491 0.699032 0.691338
          0.438716 0.689421 0.700457 0.694697 0.704595 0.694252
          0.686665 0.708041 0.68961 0.694696 0.687973 0.714567
          0.704141 0.705677 0.701597 0.701413 0.70316 0.717091
          0.706468 0.708282 0.705748 0.703733 0.707739 0.698719
          0.712787 0.710747 0.705605 0.699344 0.702652 0.705736
          0.690688 0.703049 0.711317 0.695161 0.431649 0.680579
          0.689504 0.68588 0.679866 0.682743 0.691673 0.707803
          0.686631 0.695538 0.703144 0.683853 0.705706 0.704441
          0.710016 0.685983 0.698864 0.716092 0.701756 0.716958
          0.690595 0.687384 0.681664 0.691599 0.699617 0.674371
          0.695718 0.694275 0.691359 0.692169 0.682455 0.693068
          0.692393 0.687735 0.417498 0.684481 0.703506 0.68885
          0.710061 0.700467 0.707889 0.690248 0.696231 0.706934
          0.704233 0.694866 0.691875 0.692857 0.700137 0.695925
          0.703871 0.70067 0.702375 0.709112 0.693026 0.703036
          0.687361 0.692993 0.688734 0.703091 0.697614 0.687964
          0.692208 0.692307 0.689302 0.690625 0.694255 0.669607
          0.432778 0.693042 0.69451 0.693456 0.71092 0.7083
          0.712643 0.702853 0.702146 0.717341 0.692436 0.709559
          0.691866 0.689607 0.70663 0.699987 0.696963 0.699237
          0.706513 0.704804 0.698509 0.685795 0.677211 0.690222
          0.691656 0.700369 0.696414 0.689015 0.688046 0.681478
          0.690734 0.691614 0.682111 0.691422 0.444194 0.700963
          0.696983 0.693671 0.711485 0.70556 0.704236 0.713662
          0.694626 0.69354 0.704443 0.695441 0.694267 0.700049
          0.693301 0.704349 0.703067 0.693255 0.710836 0.703711
          0.697514 0.673122 0.682252 0.692508 0.681183 0.706915
          0.678323 0.695349 0.693675 0.688813 0.702335 0.67551
          0.691616 0.710422 0.417508 0.66455 0.702471 0.703697
          0.681597 0.678443 0.681896 0.706287 0.697025 0.702461
          0.69573 0.703416 0.709079 0.692973 0.7139 0.705863
          0.70331 0.681165 0.696413 0.703833 0.687851 0.705173
          0.735973 0.713393 0.710742 0.70666 0.7123 0.720619
          0.704074 0.708593 0.705455 0.720518 0.711449 0.698274
          0.414672 0.676441 0.692893 0.692218 0.680986 0.684874
          0.680284 0.711003 0.694777 0.70148 0.684799 0.703901
          0.699634 0.703134 0.708641 0.693562 0.695283 0.704496
          0.69517 0.699547 0.695129 0.699097 0.694583 0.689253
          0.707871 0.69079 0.694054 0.69833 0.692241 0.69494
          0.697358 0.68695 0.691384 0.691692 0.420844 0.679828
          0.68973 0.684867 0.701088 0.695591 0.694309 0.697721
          0.682705 0.701089 0.705013 0.694836 0.704345 0.697851
          0.699727 0.703361 0.690561 0.700756 0.719301 0.686027
          0.711788 0.717147 0.709731 0.706788 0.720682 0.726477
          0.710259 0.694883 0.703538 0.717029 0.730256 0.713934
          0.706056 0.718717 0.430634 0.685018 0.692319 0.686831
          0.708622 0.707999 0.677833 0.715944 0.707063 0.700998
          0.697518 0.711117 0.686913 0.69703 0.694838 0.690931
          0.697946 0.708365 0.690281 0.702213 0.700309 0.70457
          0.699315 0.708312 0.694908 0.685399 0.699313 0.716125
          0.684491 0.694504 0.67885 0.690773 0.688155 0.687002
          0.444177 0.691736 0.707156 0.695707 0.697407 0.694416
          0.704428 0.698453 0.706844 0.712567 0.692777 0.701153
          0.704952 0.69025 0.702834 0.707802 0.683553 0.711208
          0.713012 0.689867 0.696099 0.68634 0.704331 0.701115
          0.701221 0.681123 0.699151 0.694931 0.678004 0.708154
          0.702266 0.690194 0.701513 0.685121 0.439093 0.687521
          0.691985 0.699781 0.697443 0.703635 0.682862 0.706167
          0.692091 0.709652 0.691775 0.717247 0.707627 0.683658
          0.707454 0.696019 0.716147 0.701598 0.69299 0.70431
          0.705796 0.68719 0.696203 0.699303 0.695536 0.696582
          0.713632 0.698713 0.687832 0.705618 0.681549 0.688525
          0.704892 0.689596 0.431111 0.691322 0.690972 0.709439
          0.694202 0.696323 0.691078 0.693487 0.687962 0.678731
          0.686593 0.687867 0.710195 0.709406 0.68955 0.688762
          0.713211 0.706039 0.701004 0.690815 0.695142 0.695175
          0.700733 0.716918 0.705588 0.692942 0.694258 0.698303
          0.710755 0.71174 0.703301 0.690605 0.723148 0.714397
          0.424567 0.684792 0.675137 0.685945 0.698042 0.686249
          0.691732 0.686063 0.706166 0.696159 0.700393 0.701711
          0.70234 0.723164 0.68752 0.717755 0.694724 0.707916
          0.7036 0.696673 0.689789 0.69522 0.681952 0.686707
          0.692343 0.692198 0.690558 0.68715 0.68749 0.689071
          0.68091 0.687664 0.692147 0.690963 0.433399 0.713605
          0.69626 0.708209 0.704565 0.690786 0.696984 0.702551
          0.707397 0.698891 0.705601 0.685121 0.708074 0.706602
          0.702283 0.682434 0.692329 0.713929 0.707361 0.701168
          0.679323 0.680813 0.692066 0.703205 0.694146 0.677844
          0.684365 0.696444 0.683642 0.679661 0.697812 0.695651
          0.695817 0.689917 0.435391 0.678855 0.705429 0.7095
          0.677433 0.691621 0.692485 0.702171 0.695987 0.701291
          0.688556 0.706735 0.702896 0.701689 0.693729 0.721064
          0.6978 0.690574 0.707793 0.703187 0.699879 0.710304
          0.706503 0.695199 0.711981 0.680745 0.700816 0.701075
          0.697355 0.700111 0.694139 0.709838 0.700057 0.683496
          0.434599 0.690362 0.705549 0.69959 0.691061 0.705535
          0.706196 0.696449 0.701442 0.696836 0.692689 0.709252
          0.6961 0.699752 0.705678 0.690372 0.715891 0.709989
          0.698643 0.688184 0.699937 0.732616 0.703971 0.712997
          0.717104 0.704909 0.711192 0.702563 0.726037 0.712506
          0.7031 0.714025 0.714141 0.708267 0.420463 0.665666
          0.690223 0.697941 0.686754 0.688436 0.688896 0.69526
          0.700996 0.698659 0.70306 0.701557 0.711244 0.694589
          0.709013 0.699657 0.716914 0.698781 0.689448 0.703751
          0.699439 0.708817 0.700046 0.718931 0.714637 0.704521
          0.711161 0.707321 0.688957 0.703715 0.708599 0.70924
          0.713924 0.697814 0.414056 0.66584 0.694017 0.687333
          0.697211 0.705747 0.701077 0.699346 0.697527 0.689178
          0.685568 0.693453 0.701006 0.703803 0.709262 0.703617
          0.706672 0.707078 0.715653 0.699372 0.711432 0.718984
          0.72095 0.697573 0.716339 0.704138 0.717125 0.700851
          0.713906 0.725581 0.705874 0.710208 0.715448 0.702156
          0.429167 0.693394 0.695191 0.699483 0.709905 0.703863
          0.703412 0.694406 0.694735 0.708916 0.692846 0.705759
          0.70834 0.701807 0.710673 0.685809 0.695107 0.714839
          0.690765 0.703028 0.707353 0.710611 0.695722 0.700363
          0.712003 0.712741 0.705679 0.720886 0.706419 0.708008
          0.69542 0.712219 0.707995 0.70238 0.436081 0.676884
          0.701095 0.696919 0.709633 0.691805 0.703596 0.698491
          0.700397 0.700246 0.691295 0.713476 0.702848 0.700962
          0.707565 0.694858 0.697156 0.706392 0.700516 0.699929
          0.718491 0.718545 0.69962 0.702925 0.70752 0.714086
          0.706877 0.72031 0.704646 0.707694 0.690143 0.700764
          0.708817 0.71408 0.428388 0.678046 0.680296 0.678759
          0.700192 0.687621 0.697708 0.705047 0.685286 0.711531
          0.703657 0.70235 0.696831 0.709915 0.691108 0.708813
          0.686838 0.706638 0.702944 0.699076 0.710371 0.713994
          0.715094 0.706371 0.708864 0.698989 0.696 0.704386
          0.709098 0.70404 0.707855 0.692902 0.702543 0.719789
          0.439035 0.687146 0.694762 0.705936 0.708006 0.703645
          0.685861 0.710301 0.696579 0.697475 0.693443 0.707938
          0.685778 0.715439 0.697479 0.702131 0.693714 0.711572
          0.702252 0.701745 0.714292 0.714318 0.722167 0.694663
          0.719882 0.698586 0.718146 0.719963 0.704087 0.70744
          0.692098 0.715934 0.716974 0.688589 0.422739 0.669331
          0.671555 0.695013 0.682588 0.705941 0.693632 0.685142
          0.694158 0.704001 0.697707 0.706675 0.692769 0.709262
          0.701482 0.696726 0.706021 0.689634 0.702445 0.700729
          0.705563 0.71526 0.72042 0.708643 0.710131 0.697005
          0.710332 0.715566 0.706028 0.706539 0.702925 0.712797
          0.707242 0.695566 0.422366 0.718611 0.694817 0.708025
          0.691107 0.701872 0.706441 0.692477 0.679331 0.708711
          0.691018 0.709456 0.69675 0.704877 0.69593 0.71215
          0.696663 0.702529 0.698598 0.704563 0.695991 0.699566
          0.705441 0.702547 0.715461 0.722727 0.69135 0.711518
          0.705029 0.695468 0.707593 0.72224 0.724181 0.709164
          0.418536 0.669568 0.710105 0.693788 0.690296 0.688544
          0.685957 0.699702 0.710645 0.698885 0.685624 0.700275
          0.704983 0.687342 0.69855 0.69918 0.705445 0.698153
          0.69215 0.712455 0.694292 0.699427 0.699253 0.704884
          0.703605 0.687846 0.709223 0.695051 0.699245 0.720071
          0.688594 0.704961 0.70337 0.680411 0.430803 0.675899
          0.705826 0.699544 0.695885 0.70899 0.684322 0.708934