<?xml version="1.0"?>
<VTKFile type="PolyData" version="0.1" byte_order="LittleEndian" header_type="UInt32" compressor="vtkZLibDataCompressor">
  <PolyData>
    <Piece NumberOfPoints="7920" NumberOfVerts="0" NumberOfLines="0" NumberOfStrips="0" NumberOfPolys="0">
      <PointData Scalars="Calcium Concentration">
        <DataArray type="Float32" Name="Calcium Concentration" format="ascii" RangeMin="0.6186450123786926" RangeMax="0.7390329837799072">
          0.658694 0.705142 0.700397 0.704591 0.700717 0.702952
          0.701168 0.70037 0.706631 0.697807 0.702628 0.700399
          0.701073 0.697477 0.703256 0.696348 0.705892 0.694055
          0.690516 0.714934 0.688362 0.689778 0.68137 0.687768
          0.687324 0.688733 0.699971 0.692141 0.694794 0.704859
          0.710363 0.703569 0.688859 0.674178 0.699078 0.689667
          0.699763 0.699219 0.697231 0.693775 0.697989 0.694834
          0.698341 0.689958 0.704737 0.703688 0.696043 0.715465
          0.691284 0.704045 0.710224 0.68569 0.705122 0.691386
          0.690347 0.678435 0.681678 0.68721 0.684815 0.69336
          0.687904 0.693786 0.705191 0.681938 0.685887 0.699196
          0.636168 0.686858 0.690781 0.687508 0.69145 0.689557
          0.686346 0.697414 0.70756 0.689869 0.693155 0.692896
          0.694473 0.703392 0.724611 0.705276 0.723191 0.707069
          0.70552 0.709231 0.714756 0.717824 0.720004 0.692978
          0.719046 0.705643 0.712333 0.704381 0.707369 0.708188
          0.71839 0.707736 0.705755 0.657025 0.69057 0.688898
          0.706411 0.701217 0.69879 0.705584 0.701688 0.704551
          0.699749 0.692687 0.708987 0.710718 0.697664 0.706572
          0.696457 0.702428 0.705079 0.697684 0.705348 0.69803
          0.687953 0.696468 0.696506 0.693055 0.704766 0.70126
          0.69591 0.697445 0.701531 0.695812 0.694851 0.696902
          0.633168 0.68284 0.683665 0.687149 0.682121 0.689664
          0.682256 0.709966 0.692843 0.696069 0.708709 0.706034
          0.711987 0.695932 0.70799 0.68637 0.701016 0.701093
          0.694996 0.698355 0.693225 0.701794 0.684788 0.696693
          0.689372 0.69141 0.679567 0.692313 0.683591 0.703568
          0.692835 0.698574 0.697154 0.667032 0.705289 0.702519
          0.703955 0.709263 0.687609 0.694488 0.690723 0.710443
          0.706394 0.701915 0.703306 0.699859 0.689249 0.712095
          0.695429 0.69692 0.680419 0.706823 0.686069 0.709945
          0.705529 0.700242 0.700597 0.713145 0.702222 0.704923
          0.702915 0.70181 0.7174 0.717631 0.696853 0.710275
          0.637544 0.675816 0.680593 0.692965 0.689827 0.696426
          0.689756 0.692684 0.719815 0.6998 0.692218 0.704673
          0.69999 0.706514 0.692842 0.699491 0.695152 0.692835
          0.690276 0.697984 0.701964 0.709125 0.702628 0.69858
          0.703142 0.720479 0.7021 0.724101 0.719342 0.71672
          0.715869 0.72065 0.713922 0.647126 0.681298 0.691766
          0.682345 0.70102 0.698074 0.683808 0.677694 0.706528
          0.704642 0.69032 0.697706 0.697537 0.693639 0.705451
          0.698067 0.706329 0.697749 0.689237 0.70391 0.6957
          0.689904 0.673818 0.689087 0.700516 0.696906 0.688462
          0.688616 0.687201 0.69285 0.6867 0.686658 0.695896
          0.656419 0.686734 0.68625 0.679755 0.68692 0.690455
          0.684738 0.695034 0.708329 0.696356 0.696444 0.702929
          0.697749 0.692114 0.69803 0.695405 0.69743 0.701673
          0.695292 0.699318 0.695456 0.706447 0.70749 0.688318
          0.709494 0.715952 0.713829 0.713939 0.711632 0.71252
          0.707269 0.706496 0.717325 0.653653 0.702566 0.701163
          0.713596 0.710404 0.687991 0.699302 0.695984 0.689565
          0.695305 0.701893 0.692019 0.702628 0.69704 0.71331
          0.702761 0.699367 0.703441 0.669092 0.701551 0.702395
          0.694429 0.696642 0.704385 0.712915 0.710851 0.704084
          0.699043 0.695632 0.722209 0.705614 0.706991 0.701136
          0.662393 0.699838 0.700488 0.701285 0.697651 0.689567
          0.708247 0.69173 0.69978 0.700971 0.691336 0.695757
          0.698283 0.70627 0.694049 0.706561 0.683814 0.697267
          0.697985 0.697842 0.711777 0.714178 0.716488 0.712684
          0.694044 0.717664 0.707682 0.708611 0.707167 0.721507
          0.697818 0.70996 0.697049 0.646682 0.682941 0.692
          0.682242 0.678764 0.685379 0.68705 0.695825 0.690694
          0.70098 0.704994 0.687984 0.691012 0.701321 0.710825
          0.686552 0.694952 0.697894 0.688504 0.706428 0.690192
          0.705535 0.696828 0.692403 0.678413 0.700505 0.687675
          0.678971 0.689453 0.699124 0.689085 0.701234 0.704394
          0.658761 0.700443 0.688509 0.709547 0.689683 0.704387
          0.707797 0.699254 0.696449 0.701898 0.694233 0.703331
          0.704209 0.708022 0.690376 0.704824 0.702204 0.697473
          0.6777 0.702673 0.683804 0.692668 0.681981 0.692466
          0.700757 0.705022 0.693976 0.697111 0.688356 0.703602
          0.698869 0.701499 0.702282 0.665215 0.70967 0.697521
          0.718651 0.697629 0.700746 0.693897 0.711026 0.705948
          0.694178 0.68983 0.697153 0.703574 0.703414 0.714877
          0.693812 0.682973 0.694301 0.694697 0.695113 0.691561
          0.691372 0.683092 0.675524 0.681144 0.694019 0.698527
          0.689274 0.680331 0.68876 0.691151 0.685807 0.692951
          0.640848 0.682961 0.704146 0.692079 0.675373 0.69063
          0.697213 0.69883 0.688911 0.701757 0.716986 0.704525
          0.693888 0.702003 0.701912 0.709428 0.699824 0.699722
          0.710532 0.701291 0.703348 0.711674 0.70899 0.706575
          0.7166 0.701153 0.714401 0.72186 0.717089 0.716327
          0.706379 0.702062 0.700358 0.655129 0.703065 0.690148
          0.710516 0.696527 0.699839 0.703961 0.711649 0.716599
          0.693341 0.707823 0.698325 0.694524 0.695033 0.709293
          0.705153 0.701764 0.703644 0.698055 0.704694 0.679648
          0.688719 0.688513 0.691217 0.688824 0.688773 0.68504
          0.692431 0.693893 0.691471 0.69295 0.68357 0.682236
          0.637111 0.689195 0.682254 0.682918 0.691489 0.68739
          0.694044 0.693963 0.692878 0.699271 0.702138 0.695177
          0.708916 0.686367 0.695673 0.702502 0.697305 0.715369
          0.703112 0.698722 0.700091 0.694615 0.683472 0.69565
          0.684553 0.692498 0.697105 0.706573 0.700278 0.707148
          0.703874 0.690008 0.706088 0.653679 0.690422 0.669972
          0.689465 0.711578 0.685748 0.693591 0.691507 0.705294
          0.702131 0.696933 0.701114 0.694517 0.70286 0.683858
          0.698764 0.699921 0.702947 0.701666 0.690901 0.703132
          0.705863 0.705565 0.708568 0.723439 0.714884 0.697063
          0.706074 0.706804 0.718585 0.716827 0.721034 0.715689
          0.637599 0.69667 0.679248 0.681621 0.689958 0.690345
          0.686366 0.71284 0.700815 0.699056 0.706489 0.697989
          0.696659 0.696169 0.703255 0.695985 0.706689 0.697853
          0.690711 0.70632 0.686471 0.696694 0.686517 0.682961
          0.695986 0.681718 0.687464 0.684793 0.696409 0.693188
          0.698187 0.703241 0.706583 0.652308 0.705425 0.702784
          0.695663 0.703864 0.704274 0.689174 0.683746 0.71485
          0.703573 0.692584 0.710182 0.695759 0.699164 0.703902
          0.703965 0.707334 0.697971 0.70343 0.686767 0.698732
          0.681814 0.684402 0.696774 0.684853 0.692971 0.680878
          0.698405 0.691135 0.685862 0.692178 0.681415 0.684417
          0.661751 0.699331 0.710765 0.694463 0.707197 0.683392
          0.712704 0.700029 0.693771 0.695158 0.699702 0.703358
          0.70349 0.700661 0.693908 0.70689 0.708117 0.714171
          0.699368 0.701437 0.694731 0.680409 0.68223 0.688445
          0.697703 0.686271 0.680241 0.693019 0.686968 0.702924
          0.692085 0.691158 0.690458 0.652647 0.709526 0.688882
          0.702697 0.702309 0.70294 0.709014 0.689805 0.707751
          0.70184 0.687727 0.712003 0.693596 0.70651 0.708884
          0.691795 0.700139 0.694392 0.713567 0.697825 0.705116
          0.705583 0.719113 0.70278 0.707573 0.710748 0.696132
          0.718514 0.711533 0.724109 0.708987 0.712521 0.703675
          0.670062 0.685047 0.704772 0.707346 0.700417 0.692184
          0.700649 0.702331 0.706598 0.700643 0.696428 0.70197
          0.714086 0.700722 0.677382 0.718445 0.694419 0.698123
          0.699354 0.700366 0.71092 0.693236 0.715254 0.698992
          0.699761 0.704601 0.713421 0.703453 0.712908 0.728162
          0.721257 0.719044 0.707624 0.657347 0.704235 0.685522
          0.699698 0.694798 0.70157 0.706997 0.696496 0.708929
          0.690573 0.708967 0.703222 0.717238 0.701587 0.704968
          0.702213 0.690128 0.697096 0.688528 0.701341 0.716968
          0.719829 0.706482 0.708621 0.714515 0.714222 0.721644
          0.715002 0.69815 0.707136 0.716504 0.714413 0.704363
          0.655066 0.698843 0.684067 0.701455 0.700385 0.70246
          0.700043 0.70069 0.709478 0.697625 0.697009 0.683172
          0.695021 0.686326 0.702435 0.702976 0.700781 0.700563
          0.699876 0.697991 0.686401 0.684468 0.702155 0.674614
          0.696404 0.694009 0.705953 0.686274 0.691875 0.702007
          0.683219 0.695696 0.688224 0.651584 0.69793 0.700885
          0.697097 0.708087 0.695693 0.709522 0.693413 0.71303
          0.697868 0.709418 0.697772 0.700411 0.69723 0.703608
          0.693131 0.699619 0.69606 0.712849 0.706287 0.692416
          0.691124 0.684702 0.689982 0.690465 0.697232 0.693952
          0.699282 0.701821 0.695284 0.685889 0.700451 0.695393
          0.661756 0.699944 0.691459 0.708422 0.706459 0.690514
          0.688586 0.693234 0.698785 0.7006 0.689649 0.707189
          0.687699 0.708608 0.698019 0.705551 0.709343 0.681954
          0.696889 0.70082 0.693298 0.688333 0.688138 0.682908
          0.694751 0.687951 0.685051 0.684277 0.675228 0.698325
          0.683959 0.692896 0.686672 0.65367 0.694425 0.689643
          0.686686 0.694606 0.694445 0.695257 0.695565 0.708069
          0.693353 0.695962 0.698901 0.697264 0.698461 0.695452
          0.696682 0.706066 0.688297 0.697585 0.706945 0.689184
          0.683965 0.683432 0.68808 0.684815 0.684836 0.687788
          0.694284 0.688555 0.717401 0.706903 0.677151 0.702946
          0.658028 0.707243 0.695592 0.687462 0.711773 0.695385
          0.706826 0.704376 0.71379 0.698767 0.692398 0.70044
          0.702302 0.697512 0.698616 0.700335 0.688598 0.698726
          0.69327 0.705496 0.690913 0.692715 0.674802 0.699211
          0.695771 0.679675 0.688474 0.700921 0.699793 0.693016
          0.697023 0.686641 0.683804 0.658232 0.700083 0.705097
          0.700734 0.694 0.699015 0.701714 0.69974 0.707066
          0.690691 0.704255 0.707077 0.70037 0.679832 0.710472
          0.706545 0.704938 0.711859 0.696175 0.697728 0.69196
          0.689498 0.688625 0.695635 0.696915 0.685817 0.701346
          0.700828 0.697936 0.696453 0.689366 0.684469 0.684241
          0.641679 0.689698 0.686158 0.697662 0.686522 0.688769
          0.685846 0.688596 0.68334 0.710412 0.705478 0.697767
          0.70147 0.708729 0.705696 0.687505 0.704262 0.701714
          0.710951 0.700155 0.717966 0.705044 0.704535 0.721666
          0.716371 0.711139 0.709582 0.708364 0.718301 0.69795
          0.691744 0.702146 0.727144 0.637324 0.691073 0.685868
          0.682202 0.696242 0.690517 0.691869 0.686515 0.691833
          0.688742 0.694434 0.69512 0.698326 0.691108 0.696353
          0.693889 0.713415 0.696046 0.699958 0.699238 0.707339
          0.720034 0.712916 0.684483 0.70704 0.69389 0.712091
          0.70907 0.707228 0.719027 0.711469 0.708751 0.705835
          0.657824 0.705169 0.693388 0.701714 0.713424 0.702952
          0.700487 0.686064 0.713805 0.698142 0.700337 0.702637
          0.691499 0.700712 0.708563 0.702785 0.707621 0.706383
          0.696004 0.701473 0.703138 0.709663 0.715498 0.694368
          0.702887 0.702339 0.699152 0.699479 0.713435 0.713976
          0.713567 0.705767 0.701397 0.647058 0.68809 0.697542
          0.690062 0.683923 0.698472 0.690346 0.704534 0.67724
          0.712878 0.702685 0.694259 0.693152 0.700737 0.702374
          0.704012 0.700633 0.703722 0.689171 0.71292 0.696239
          0.695511 0.701036 0.705697 0.68757 0.70856 0.690616
          0.693952 0.69604 0.697034 0.679288 0.701798 0.697636
          0.653714 0.697713 0.691823 0.675185 0.683243 0.688009
          0.689725 0.696218 0.70835 0.68796 0.70286 0.692783
          0.704694 0.691178 0.699225 0.699611 0.688463 0.704077
          0.700146 0.706262 0.70454 0.692047 0.685452 0.685522
          0.693613 0.696847 0.690872 0.680987 0.707348 0.679464
          0.691358 0.68412 0.686178 0.62839 0.678472 0.69879
          0.703501 0.700844 0.681082 0.695131 0.701125 0.690407
          0.685681 0.698256 0.693724 0.708101 0.707079 0.708331
          0.698661 0.708179 0.698709 0.695136 0.697618 0.702889
          0.692525 0.70144 0.710263 0.710242 0.700251 0.696112
          0.68718 0.704859 0.692446 0.687594 0.694666 0.693418
          0.640752 0.69853 0.703803 0.704225 0.696917 0.702923
          0.69954 0.699776 0.703533 0.702451 0.706749 0.689466
          0.703358 0.708748 0.701567 0.694585 0.694235 0.694052
          0.706225 0.70047 0.681025 0.691324 0.689698 0.682827
          0.699396 0.685059 0.675539 0.693685 0.694231 0.70202
          0.68617 0.693366 0.685969 0.619288 0.679849 0.691497
          0.703481 0.683819 0.698348 0.688241 0.704213 0.700073
          0.68632 0.679978 0.708247 0.700928 0.70529 0.698494
          0.694986 0.696076 0.698696 0.710273 0.69348 0.707512
          0.702638 0.704131 0.713262 0.711675 0.713962 0.720747
          0.721335 0.709938 0.705839 0.71367 0.712056 0.714782
          0.664833 0.701369 0.701104 0.704731 0.684885 0.701603
          0.698875 0.699915 0.706645 0.701951 0.708952 0.69537
          0.683659 0.706001 0.693019 0.708948 0.698916 0.709392
          0.703217 0.705598 0.697051 0.698067 0.700671 0.702072
          0.703736 0.698712 0.688427 0.68877 0.689632 0.698713
          0.676738 0.708667 0.681049 0.656382 0.698764 0.706768
          0.691092 0.70541 0.702689 0.693248 0.706215 0.691672
          0.704425 0.700693 0.711756 0.699533 0.693278 0.713364
          0.700337 0.708304 0.692753 0.701769 0.708847 0.688777
          0.693078 0.68663 0.698045 0.687409 0.692093 0.693776
          0.686577 0.687372 0.709692 0.712082 0.687788 0.692051
          0.647813 0.704291 0.70424 0.705549 0.695946 0.693583
          0.697927 0.701488 0.698487 0.704704 0.697236 0.698502
          0.706687 0.712414 0.699583 0.710262 0.699231 0.699555
          0.69346 0.702688 0.693664 0.696295 0.698845 0.700929
          0.68518 0.710275 0.674085 0.694376 0.702957 0.686669
          0.683242 0.68625 0.692105 0.6599 0.715738 0.693457
          0.693514 0.695976 0.702501 0.70284 0.698855 0.706716
          0.702173 0.701061 0.703781 0.706891 0.691873 0.714932
          0.703499 0.716449 0.693477 0.693532 0.690808 0.721203
          0.715536 0.689303 0.713146 0.717659 0.712129 0.711491
          0.711712 0.709593 0.719203 0.709861 0.697141 0.718122
          0.657407 0.69952 0.692764 0.703663 0.702818 0.698516
          0.686172 0.700774 0.708714 0.715918 0.70361 0.706428
          0.686254 0.713862 0.690738 0.701036 0.711887 0.688584
          0.692024 0.686372 0.687876 0.693612 0.692704 0.68789
          0.709875 0.68861 0.681917 0.682866 0.690235 0.694249
          0.70006 0.692604 0.669384 0.654103 0.689928 0.695382
          0.6958 0.707587 0.693563 0.698788 0.697179 0.701298
          0.698395 0.700023 0.698183 0.703604 0.68446 0.706209
          0.702777 0.69628 0.701986 0.685837 0.697317 0.715234
          0.707796 0.709939 0.705848 0.709613 0.7099 0.69118
          0.713479 0.705412 0.705212 0.706673 0.706624 0.711062
          0.631055 0.680867 0.706897 0.691149 0.691124 0.69143
          0.698684 0.699954 0.697364 0.689194 0.685963 0.680989
          0.705044 0.708527 0.708634 0.690862 0.697118 0.69758
          0.694225 0.69391 0.711242 0.712813 0.706534 0.731237
          0.711796 0.709359 0.728536 0.717369 0.719474 0.704991
          0.709971 0.701304 0.704372 0.6375 0.681216 0.684719
          0.688959 0.69148 0.696347 0.690977 0.692818 0.688603
          0.715927 0.699645 0.686053 0.707084 0.692716 0.719425
          0.690575 0.704161 0.682322 0.708203 0.699917 0.718813
          0.709138 0.708813 0.695488 0.716723 0.719973 0.709226
          0.696782 0.718451 0.712626 0.700051 0.71435 0.715775
          0.639227 0.690117 0.685186 0.685792 0.686236 0.675806
          0.69601 0.700543 0.716265 0.697894 0.695812 0.695694
          0.696588 0.703247 0.691978 0.710667 0.704966 0.694944
          0.682188 0.7018 0.703952 0.723729 0.712113 0.704603
          0.708742 0.696415 0.701917 0.708185 0.708842 0.714278
          0.698238 0.706989 0.724575 0.670589 0.699448 0.693681
          0.706649 0.705698 0.693173 0.689844 0.696796 0.701461
          0.69135 0.698248 0.698326 0.701485 0.701251 0.698107
          0.707611 0.70064 0.706256 0.704663 0.699491 0.703017
          0.728655 0.712343 0.694205 0.715312 0.700409 0.715022
          0.69801 0.707525 0.712715 0.714299 0.703897 0.711708
          0.645115 0.675468 0.704364 0.699261 0.698589 0.703181
          0.684393 0.680413 0.682996 0.704628 0.713016 0.702925
          0.697908 0.692906 0.714417 0.690448 0.696764 0.702919
          0.69475 0.689888 0.707462 0.677702 0.700619 0.699732
          0.687947 0.693917 0.690979 0.677471 0.680935 0.686818
          0.698658 0.696244 0.698471 0.653718 0.696469 0.696018
          0.698174 0.700464 0.701867 0.714651 0.708544 0.695538
          0.689716 0.694286 0.688837 0.70189 0.71313 0.701813
          0.694842 0.690845 0.689515 0.694098 0.694487 0.710445
          0.693805 0.68824 0.693982 0.696658 0.703204 0.706463
          0.702723 0.703138 0.69927 0.691069 0.681226 0.696754
          0.646987 0.687618 0.69043 0.699211 0.692641 0.681917
          0.694632 0.707619 0.685286 0.686609 0.684771 0.684112
          0.699841 0.708721 0.713368 0.695061 0.697559 0.702308
          0.700292 0.69355 0.694058 0.69738 0.698014 0.702097
          0.694879 0.688024 0.693178 0.690427 0.7151 0.687475
          0.692692 0.693219 0.706338 0.633094 0.691553 0.6838
          0.708014 0.686507 0.689098 0.685271 0.683667 0.687493
          0.696184 0.714904 0.689401 0.709432 0.722064 0.708013
          0.690375 0.691167 0.709214 0.702499 0.695065 0.720745
          0.704564 0.7038 0.713202 0.726402 0.704514 0.716366
          0.707821 0.720987 0.687581 0.70552 0.712213 0.705905
          0.623811 0.683522 0.699733 0.69476 0.677012 0.678298
          0.68526 0.702257 0.695589 0.699795 0.698575 0.704441
          0.71753 0.707785 0.700178 0.702635 0.70008 0.694341
          0.698752 0.702696 0.705023 0.698862 0.699434 0.710418
          0.687553 0.679061 0.696852 0.697469 0.690663 0.703062
          0.691134 0.690405 0.710995 0.653235 0.691251 0.684602
          0.689824 0.687643 0.703553 0.684581 0.670911 0.710327
          0.707263 0.702812 0.703945 0.701211 0.695673 0.70977
          0.701984 0.699074 0.695341 0.692153 0.708522 0.697939
          0.69071 0.702514 0.667744 0.698335 0.691992 0.693374
          0.680041 0.689656 0.694962 0.701701 0.70377 0.691421
          0.666718 0.709351 0.7042 0.684872 0.708346 0.697487
          0.715882 0.689977 0.723265 0.700033 0.697543 0.700884
          0.697725 0.695102 0.706922 0.708992 0.700465 0.686619
          0.699033 0.702666 0.69882 0.70751 0.69665 0.708206
          0.717693 0.710336 0.700611 0.699268 0.705016 0.720859
          0.710049 0.707879 0.720519 0.668092 0.709595 0.692635
          0.697551 0.695837 0.691729 0.694377 0.69631 0.723079
          0.704829 0.699615 0.706258 0.686324 0.701423 0.691596
          0.711096 0.704925 0.688158 0.686927 0.697117 0.714924
          0.70482 0.696832 0.7194 0.685758 0.707961 0.705563
          0.705276 0.707307 0.718231 0.715303 0.711999 0.710623
          0.626704 0.681647 0.703442 0.694542 0.686613 0.695301
          0.688977 0.697626 0.691401 0.703239 0.687554 0.707645
          0.702822 0.704236 0.708819 0.695207 0.701125 0.704263
          0.696411 0.700007 0.702889 0.693246 0.686603 0.710278
          0.707897 0.70424 0.712829 0.701475 0.705386 0.68524
          0.7118 0.703144 0.701803 0.664048 0.707705 0.70737
          0.696462 0.697019 0.707926 0.707169 0.716773 0.692348
          0.710453 0.699126 0.692617 0.703522 0.687259 0.703747
          0.709058 0.696501 0.686773 0.699821 0.687933 0.713543
          0.709388 0.703641 0.710704 0.71275 0.706123 0.697152
          0.713167 0.699785 0.70167 0.716443 0.715643 0.716397
          0.642715 0.692388 0.683831 0.679138 0.678659 0.69457
          0.683022 0.711382 0.706527 0.693917 0.704516 0.697542
          0.689704 0.695516 0.685641 0.724724 0.699974 0.692424
          0.701702 0.700495 0.710467 0.687183 0.690865 0.690759
          0.684547 0.683453 0.685286 0.69218 0.684477 0.689724
          0.685976 0.687095 0.699028 0.653003 0.706728 0.697171
          0.69426 0.707017 0.687384 0.690106 0.703739 0.700347
          0.707087 0.692847 0.704169 0.713061 0.693902 0.687065
          0.701935 0.698058 0.708062 0.700212 0.695417 0.688856
          0.690498 0.690422 0.685915 0.691157 0.692298 0.6994
          0.685734 0.693829 0.684492 0.684292 0.6889 0.68622
          0.657006 0.704467 0.698588 0.702855 0.709711 0.694894
          0.688499 0.700161 0.696987 0.703333 0.695466 0.702851
          0.701842 0.698206 0.703499 0.701534 0.699178 0.692471
          0.703128 0.706124 0.689544 0.697799 0.689504 0.697748
          0.696974 0.691277 0.693692 0.674606 0.678771 0.681527
          0.68108 0.702806 0.689362 0.675847 0.705247 0.700129
          0.693424 0.706491 0.674649 0.702029 0.70998 0.698214
          0.704267 0.697542 0.696055 0.706021 0.692972 0.700809
          0.705058 0.701894 0.69024 0.708866 0.693002 0.687328
          0.691226 0.67712 0.689605 0.69111 0.694329 0.689927
          0.688863 0.697717 0.707168 0.69888 0.678434 0.68537
          0.631441 0.684563 0.704236 0.695609 0.68479 0.687639
          0.696208 0.687692 0.688424 0.68991 0.713837 0.688232
          0.707693 0.684398 0.690254 0.69712 0.708737 0.706732
          0.707697 0.691084 0.709159 0.706754 0.713156 0.717587
          0.707471 0.721823 0.710731 0.727323 0.715564 0.706403
          0.722622 0.712672 0.709792 0.641371 0.678152 0.68306
          0.689683 0.672131 0.687594 0.70472 0.706387 0.691462
          0.695452 0.703613 0.693716 0.699004 0.715635 0.694591
          0.706296 0.689509 0.707943 0.695848 0.706096 0.685488
          0.676267 0.688 0.701709 0.694023 0.694485 0.693417
          0.690872 0.688957 0.685807 0.700308 0.695164 0.691996
          0.647293 0.686675 0.687655 0.698564 0.692241 0.689739
          0.681591 0.687879 0.690733 0.691918 0.700626 0.701786
          0.714354 0.693152 0.706605 0.701191 0.701693 0.698975
          0.690477 0.700544 0.718903 0.715631 0.700769 0.730446
          0.713954 0.696159 0.710377 0.696875 0.71666 0.721303
          0.720071 0.704711 0.710116 0.631769 0.696615 0.707132
          0.702027 0.696786 0.704057 0.719294 0.702076 0.68478
          0.710244 0.690457 0.703122 0.718091 0.703564 0.715182
          0.691462 0.713308 0.70834 0.709438 0.704829 0.699688
          0.706279 0.698528 0.708483 0.712549 0.691152 0.68634
          0.697424 0.69617 0.691037 0.673979 0.69318 0.696355
          0.654022 0.694148 0.696676 0.699464 0.700916 0.696368
          0.708447 0.706428 0.688771 0.70091 0.698242 0.696173
          0.698539 0.693659 0.716259 0.69047 0.69809 0.702099
          0.696945 0.700161 0.688146 0.707732 0.701575 0.692593
          0.689972 0.708791 0.690558 0.701501 0.694535 0.693601
          0.68629 0.706544 0.698132 0.645727 0.711439 0.693885
          0.699046 0.697031 0.705151 0.706279 0.704355 0.693321
          0.692964 0.711189 0.697888 0.704729 0.714514 0.686347
          0.698533 0.698071 0.696127 0.712489 0.71424 0.693894
          0.684447 0.703739 0.697078 0.707738 0.686758 0.705887
          0.689099 0.703521 0.691994 0.689564 0.691614 0.694001
          0.651762 0.699157 0.704962 0.689918 0.687275 0.692665
          0.686724 0.686382 0.687755 0.689995 0.691709 0.7046
          0.708228 0.702014 0.686556 0.704589 0.712653 0.691899
          0.708394 0.691267 0.701537 0.702226 0.713685 0.705344
          0.698533 0.702964 0.70299 0.726113 0.717023 0.710071
          0.692845 0.717051 0.710322 0.643708 0.678189 0.683779
          0.692033 0.695268 0.700913 0.694032 0.69741 0.699952
          0.705871 0.70823 0.697322 0.699157 0.689156 0.68846
          0.702128 0.696294 0.705093 0.697413 0.695013 0.688121
          0.690184 0.689347 0.683569 0.69447 0.703579 0.68285
          0.692866 0.69576 0.693044 0.699035 0.69217 0.679199
          0.668357 0.70442 0.687592 0.696609 0.69737 0.692541
          0.701608 0.697424 0.700967 0.712985 0.682489 0.712864
          0.694473 0.696169 0.70457 0.69746 0.704227 0.679735
          0.691686 0.694482 0.68436 0.679801 0.682388 0.69439
          0.698283 0.680282 0.708568 0.681462 0.680554 0.695864
          0.69349 0.704392 0.688568 0.639158 0.69517 0.69923
          0.710979 0.696604 0.696455 0.697876 0.701325 0.681646
          0.701031 0.694978 0.698218 0.709422 0.706821 0.704195
          0.690234 0.695414 0.697664 0.712171 0.70222 0.695353
          0.71046 0.706389 0.706023 0.709476 0.697977 0.708225
          0.705548 0.697764 0.699701 0.695721 0.694338 0.696725
          0.665758 0.701194 0.700474 0.693055 0.705745 0.68801
          0.703695 0.698939 0.7037 0.688658 0.698852 0.706196
          0.694215 0.713523 0.709232 0.684879 0.702762 0.706576
          0.682465 0.692066 0.715911 0.705375 0.714768 0.715989
          0.721776 0.702404 0.688461 0.718092 0.710098 0.703751
          0.718727 0.712537 0.721282 0.633703 0.677684 0.694236
          0.689998 0.691909 0.679313 0.688053 0.695461 0.700122
          0.693252 0.697607 0.685155 0.696175 0.698317 0.698442
          0.704082 0.700111 0.710099 0.696984 0.700369 0.714184
          0.71966 0.713372 0.714918 0.712327 0.694986 0.706094
          0.701442 0.707466 0.713303 0.710771 0.720843 0.714063
          0.635666 0.694251 0.691905 0.674462 0.685389 0.69956
          0.69181 0.687164 0.689531 0.690507 0.705418 0.700934
          0.698361 0.704521 0.703961 0.68725 0.700003 0.695925
          0.699473 0.698621 0.720457 0.726166 0.715718 0.717544
          0.711881 0.708298 0.725736 0.696517 0.699921 0.71138
          0.708626 0.712718 0.71511 0.666561 0.706844 0.686468
          0.697039 0.695269 0.700679 0.697056 0.706686 0.706306
          0.697475 0.694122 0.699558 0.697739 0.706332 0.696561
          0.687022 0.711938 0.701388 0.70077 0.697489 0.715281
          0.705457 0.709105 0.698195 0.715341 0.713694 0.716561
          0.702968 0.699849 0.695655 0.712467 0.722456 0.705829
          0.656445 0.696447 0.716518 0.699858 0.696663 0.698233
          0.703785 0.708507 0.71687 0.678174 0.704822 0.695627
          0.71578 0.688536 0.698781 0.701427 0.705554 0.694414
          0.70469 0.706116 0.704465 0.700064 0.70157 0.710132
          0.704913 0.704754 0.717416 0.720942 0.711052 0.704421
          0.694207 0.709467 0.698545 0.645463 0.688366 0.67425
          0.683173 0.692395 0.688554 0.687175 0.711747 0.696285
          0.70766 0.67801 0.694711 0.70336 0.689051 0.696728
          0.692762 0.697519 0.688586 0.7001 0.716236 0.712284
          0.698526 0.711421 0.691414 0.698374 0.706637 0.705683
          0.701557 0.690113 0.711108 0.702905 0.705713 0.722454
          0.663317 0.698302 0.716391 0.686911 0.693161 0.698434
          0.719367 0.70532 0.690386 0.698603 0.697893 0.694661
          0.705533 0.693421 0.697725 0.700386 0.694679 0.706368
          0.696772 0.696247 0.710544 0.710446 0.700625 0.712119
          0.70777 0.711599 0.714286 0.697593 0.703937 0.697147
          0.699445 0.710164 0.713188 0.641666 0.679233 0.692586
          0.685704 0.691898 0.699077 0.681827 0.692318 0.686378
          0.691967 0.693652 0.685899 0.70364 0.708364 0.693051
          0.703583 0.699484 0.697178 0.703172 0.691497 0.704203
          0.711742 0.699338 0.695688 0.709357 0.720657 0.716418
          0.71876 0.712839 0.708645 0.694748 0.70678 0.703709
          0.659941 0.717881 0.704233 0.694432 0.715837 0.708471
          0.697496 0.705363 0.701167 0.695679 0.731447 0.69789
          0.686599 0.691524 0.701435 0.691061 0.706117 0.708531
          0.692915 0.685017 0.691008 0.706136 0.713041 0.699624
          0.72213 0.709703 0.701238 0.707553 0.696824 0.708993
          0.719936 0.712237 0.714989 0.631059 0.687867 0.688054
          0.71275 0.683929 0.699559 0.693461 0.701253 0.695063
          0.687495 0.697875 0.691937 0.703397 0.689602 0.698455
          0.692239 0.694842 0.704847 0.696438 0.692157 0.69241
          0.70186 0.707827 0.705968 0.708819 0.687169 0.704161
          0.709187 0.703368 0.680906 0.690673 0.703262 0.697061
          0.648606 0.703224 0.697914 0.701801 0.694181 0.692959
          0.703059 0.705388 0.709314 0.700448 0.707543 0.677445
          0.706484 0.691017 0.704324 0.712558 0.704951 0.711044
          0.712223 0.700506 0.688802 0.708486 0.693763 0.695691
          0.68975 0.693569 0.691362 0.693794 0.680785 0.688977
          0.683997 0.686234 0.699994 0.671365 0.696214 0.688877
          0.706692 0.69289 0.70009 0.696475 0.702415 0.703138
          0.700182 0.68816 0.709945 0.686977 0.70423 0.702027
          0.701532 0.704284 0.694992 0.695305 0.705768 0.700928
          0.688246 0.696636 0.678965 0.691811 0.704291 0.690503
          0.688018 0.705025 0.703689 0.696201 0.704865 0.684742
          0.674353 0.701301 0.704574 0.687656 0.703932 0.697767
          0.70669 0.691058 0.707596 0.695682 0.699767 0.725225
          0.685335 0.699504 0.687842 0.714309 0.708038 0.691888
          0.699368 0.702914 0.686982 0.703384 0.697012 0.691606