<?xml version="1.0"?>
<VTKFile type="PolyData" version="0.1" byte_order="LittleEndian" header_type="UInt32" compressor="vtkZLibDataCompressor">
  <PolyData>
    <Piece NumberOfPoints="7920" NumberOfVerts="0" NumberOfLines="0" NumberOfStrips="0" NumberOfPolys="0">
      <PointData Scalars="Calcium Concentration">
        <DataArray type="Float32" Name="Calcium Concentration" format="ascii" RangeMin="0.49726301431655884" RangeMax="0.735867977142334">
          0.517425 0.704084 0.701252 0.695668 0.704725 0.692314
          0.68732 0.710424 0.696547 0.684911 0.704711 0.705367
          0.705183 0.706671 0.695778 0.705926 0.690213 0.698271
          0.711765 0.696552 0.69083 0.675046 0.689201 0.689594
          0.685635 0.693893 0.695773 0.693311 0.690959 0.686858
          0.705081 0.687355 0.688052 0.536232 0.695917 0.697703
          0.697082 0.697681 0.699726 0.698103 0.707717 0.716025
          0.695831 0.689645 0.708183 0.690497 0.700002 0.711778
          0.691441 0.703736 0.696664 0.696343 0.708296 0.689089
          0.699881 0.68353 0.679166 0.67892 0.698886 0.701802
          0.689116 0.689782 0.693637 0.703668 0.683097 0.689367
          0.522338 0.686692 0.69225 0.684039 0.690865 0.683438
          0.689293 0.692419 0.69582 0.705184 0.693998 0.701323
          0.701669 0.703088 0.709863 0.702363 0.706726 0.71728
          0.72139 0.702148 0.719819 0.707915 0.716821 0.704351
          0.706254 0.713256 0.709408 0.70389 0.715054 0.70221
          0.707032 0.709927 0.705906 0.529769 0.686233 0.711906
          0.692231 0.695146 0.688374 0.709598 0.694941 0.715019
          0.710474 0.693451 0.694927 0.69428 0.701205 0.702141
          0.698532 0.698619 0.689452 0.703137 0.700992 0.703904
          0.684415 0.691437 0.690831 0.6919 0.716052 0.705669
          0.699101 0.703126 0.696067 0.700081 0.699293 0.697857
          0.526712 0.685815 0.691428 0.695241 0.68444 0.68707
          0.690065 0.692082 0.694308 0.702645 0.704855 0.694395
          0.701579 0.697401 0.695994 0.706022 0.706765 0.690353
          0.705438 0.701025 0.692714 0.688785 0.689026 0.681471
          0.685448 0.691064 0.680005 0.694375 0.689288 0.695804
          0.688226 0.695279 0.702236 0.539286 0.702181 0.693196
          0.691213 0.688285 0.714168 0.69082 0.698943 0.712107
          0.699654 0.682155 0.700886 0.701474 0.70191 0.702145
          0.702795 0.700248 0.691707 0.715386 0.700099 0.697783
          0.699907 0.703709 0.690928 0.698599 0.72208 0.7107
          0.698337 0.702688 0.712146 0.718388 0.708226 0.700959
          0.523582 0.689548 0.689698 0.682192 0.678423 0.685328
          0.679436 0.696312 0.711792 0.704887 0.686077 0.696618
          0.700531 0.720232 0.696759 0.698472 0.696875 0.690168
          0.702047 0.694704 0.708497 0.703505 0.69789 0.702642
          0.700793 0.71127 0.71678 0.714467 0.709198 0.697299
          0.716738 0.709246 0.717843 0.515917 0.688769 0.675133
          0.694995 0.69108 0.698434 0.682819 0.66719 0.705195
          0.697082 0.70286 0.717029 0.70201 0.703177 0.703901
          0.701615 0.703351 0.710753 0.711442 0.695602 0.695922
          0.685399 0.690122 0.687778 0.695002 0.698456 0.696845
          0.68598 0.688697 0.679474 0.707326 0.675596 0.684718
          0.509172 0.68567 0.687979 0.689237 0.6885 0.689587
          0.686165 0.703161 0.700886 0.697948 0.698466 0.709736
          0.70357 0.704558 0.705568 0.696488 0.698603 0.692946
          0.709243 0.688297 0.702778 0.705117 0.699399 0.701736
          0.717565 0.72046 0.704745 0.699777 0.704377 0.70199
          0.718831 0.703844 0.717255 0.535581 0.702364 0.698484
          0.702954 0.696747 0.692479 0.699193 0.702939 0.706332
          0.704133 0.721239 0.688865 0.691159 0.717081 0.690778
          0.69698 0.693981 0.705549 0.702722 0.700484 0.693895
          0.698169 0.695172 0.700063 0.715661 0.71661 0.705937
          0.707677 0.706103 0.70239 0.707997 0.698161 0.716543
          0.541419 0.706435 0.703579 0.707095 0.69602 0.705537
          0.702952 0.695542 0.695844 0.702034 0.703545 0.694836
          0.702538 0.697558 0.687844 0.704825 0.698639 0.708768
          0.699526 0.6961 0.703793 0.706651 0.720634 0.708323
          0.698637 0.715981 0.723617 0.700234 0.704551 0.702031
          0.712253 0.710184 0.719162 0.515767 0.689076 0.688741
          0.693797 0.672656 0.685335 0.701313 0.710136 0.698183
          0.694988 0.692023 0.70252 0.714757 0.700633 0.695468
          0.694873 0.707096 0.699027 0.701601 0.712282 0.697448
          0.689621 0.688619 0.686255 0.675627 0.69095 0.687103
          0.69195 0.684808 0.691019 0.693336 0.686232 0.700569
          0.53621 0.703757 0.686542 0.713734 0.683536 0.702265
          0.713093 0.703715 0.695664 0.689561 0.697424 0.698197
          0.707545 0.701042 0.701865 0.702559 0.699458 0.70411
          0.690524 0.706835 0.689898 0.698109 0.696181 0.679222
          0.698068 0.694613 0.68118 0.68336 0.706722 0.686901
          0.699502 0.69114 0.697419 0.532701 0.686241 0.682861
          0.695537 0.705941 0.687803 0.70466 0.701168 0.684349
          0.69807 0.703493 0.707006 0.701162 0.699316 0.705531
          0.698305 0.686793 0.699037 0.714467 0.69125 0.696276
          0.699929 0.680348 0.688068 0.69337 0.702084 0.686799
          0.696484 0.710518 0.689186 0.686644 0.694033 0.68675
          0.522445 0.68492 0.681956 0.694937 0.693913 0.68182
          0.689243 0.698715 0.684798 0.694618 0.693131 0.698554
          0.702776 0.712337 0.711159 0.686202 0.702531 0.707448
          0.693304 0.69795 0.714363 0.710181 0.709968 0.706026
          0.697737 0.708864 0.721141 0.71841 0.716861 0.719392
          0.708039 0.719775 0.727476 0.519465 0.698065 0.687354
          0.691376 0.706598 0.702354 0.690396 0.691756 0.686809
          0.701745 0.688414 0.692145 0.701113 0.712127 0.696508
          0.69907 0.687406 0.709027 0.689488 0.700435 0.687577
          0.675061 0.696877 0.683544 0.695233 0.690265 0.69003
          0.68099 0.687961 0.690664 0.690626 0.684165 0.686137
          0.529067 0.685105 0.687379 0.684313 0.686409 0.698345
          0.694241 0.70003 0.686656 0.698314 0.689936 0.705451
          0.702112 0.704137 0.705795 0.706141 0.698222 0.707494
          0.698911 0.689053 0.68122 0.679258 0.698549 0.689833
          0.703939 0.685397 0.695884 0.691279 0.698294 0.703867
          0.701981 0.688563 0.694272 0.512781 0.701573 0.676681
          0.674177 0.691448 0.682149 0.68033 0.709632 0.703206
          0.691358 0.70247 0.701308 0.690037 0.711745 0.697228
          0.715592 0.695501 0.695414 0.704903 0.695547 0.699721
          0.713729 0.704389 0.710789 0.710328 0.715153 0.696127
          0.706479 0.700646 0.698485 0.717584 0.708605 0.711887
          0.520259 0.687496 0.680432 0.690675 0.68839 0.683468
          0.679747 0.696406 0.684641 0.70533 0.696043 0.703438
          0.714208 0.697237 0.699337 0.697811 0.697661 0.705079
          0.695602 0.703263 0.69093 0.687836 0.678504 0.690866
          0.683502 0.700499 0.692894 0.686573 0.692885 0.686791
          0.704584 0.693953 0.707002 0.535445 0.698345 0.699226
          0.699611 0.711112 0.682425 0.709855 0.696277 0.700468
          0.700491 0.706645 0.709068 0.702677 0.708191 0.695778
          0.690687 0.687996 0.687044 0.707534 0.69685 0.686538
          0.691823 0.694629 0.688112 0.686993 0.689306 0.69389
          0.693587 0.68895 0.690051 0.692521 0.685318 0.690215
          0.530022 0.717924 0.696105 0.696164 0.710371 0.689542
          0.695247 0.707547 0.702085 0.690102 0.715541 0.695812
          0.700619 0.712877 0.690368 0.700544 0.705219 0.698769
          0.700316 0.696754 0.691586 0.69739 0.672548 0.691589
          0.690601 0.702442 0.677889 0.690332 0.69616 0.692354
          0.695568 0.681444 0.694836 0.535771 0.683725 0.694119
          0.68818 0.69937 0.708975 0.710399 0.691017 0.703612
          0.703424 0.688958 0.705578 0.701818 0.7 0.710102
          0.694527 0.70006 0.700472 0.7002 0.704082 0.709549
          0.7022 0.712123 0.703945 0.694673 0.719138 0.71794
          0.693813 0.715375 0.707281 0.71642 0.699072 0.706072
          0.529184 0.706688 0.687039 0.716631 0.696332 0.694827
          0.700873 0.70894 0.694875 0.7022 0.706311 0.701858
          0.686254 0.71963 0.694327 0.712286 0.699246 0.696671
          0.700674 0.686474 0.712603 0.708084 0.705388 0.706883
          0.704402 0.719864 0.699508 0.703902 0.711989 0.714167
          0.721229 0.705917 0.713152 0.544072 0.709609 0.692596
          0.706213 0.707657 0.692221 0.7033 0.713007 0.701441
          0.702772 0.701347 0.68809 0.704629 0.711092 0.702565
          0.704895 0.69373 0.711026 0.684218 0.687943 0.70695
          0.696874 0.718524 0.701727 0.716708 0.729645 0.714076
          0.722682 0.728429 0.701095 0.718176 0.694961 0.704585
          0.517809 0.692573 0.695404 0.71269 0.710918 0.691591
          0.703809 0.703308 0.705165 0.71523 0.703092 0.694725
          0.704925 0.701348 0.706596 0.686327 0.707843 0.702927
          0.711861 0.704175 0.687343 0.690681 0.687361 0.696348
          0.697188 0.705068 0.693754 0.697447 0.692583 0.699421
          0.69009 0.685788 0.689254 0.531469 0.695104 0.707284
          0.698333 0.68989 0.688327 0.710394 0.699414 0.699242
          0.701738 0.699946 0.686642 0.706033 0.692495 0.705336
          0.69596 0.6954 0.698782 0.701669 0.695043 0.695151
          0.687191 0.684356 0.687022 0.690116 0.691888 0.69015
          0.691821 0.701283 0.701946 0.6858 0.692694 0.69873
          0.532176 0.704962 0.69814 0.697599 0.696045 0.706509
          0.702922 0.700307 0.702637 0.701401 0.692969 0.706986
          0.701164 0.719684 0.679972 0.700974 0.696121 0.697955
          0.706522 0.7014 0.68638 0.690128 0.685314 0.684093
          0.694183 0.694577 0.6876 0.687942 0.687486 0.685558
          0.692728 0.67846 0.681447 0.529598 0.694323 0.682165
          0.69031 0.702081 0.707845 0.689686 0.696898 0.693978
          0.699147 0.700622 0.695335 0.696289 0.70637 0.70247
          0.701376 0.701144 0.687796 0.719758 0.694746 0.688766
          0.693129 0.683659 0.685756 0.694588 0.688966 0.684548
          0.684859 0.688308 0.701665 0.691819 0.691162 0.690013
          0.523226 0.701678 0.695827 0.714343 0.701064 0.693389
          0.698414 0.698197 0.684566 0.71222 0.693558 0.694147
          0.711108 0.70014 0.716287 0.699551 0.694497 0.720098
          0.701633 0.695065 0.698011 0.682076 0.680836 0.696226
          0.685881 0.684596 0.686057 0.693433 0.706668 0.67608
          0.690297 0.697534 0.69228 0.52984 0.704025 0.699887
          0.69751 0.708098 0.696562 0.714961 0.684773 0.704127
          0.705743 0.705362 0.703113 0.687385 0.723029 0.693179
          0.69714 0.701896 0.695392 0.710613 0.68684 0.695867
          0.694436 0.670544 0.705584 0.68928 0.700548 0.691588
          0.691593 0.707116 0.705236 0.697906 0.688239 0.687118
          0.525392 0.689803 0.695567 0.698227 0.688982 0.687756
          0.689148 0.70276 0.681116 0.709581 0.695277 0.697537
          0.699178 0.699832 0.694961 0.706963 0.696973 0.701179
          0.698441 0.695526 0.70366 0.710657 0.705985 0.707501
          0.723745 0.711392 0.711722 0.69889 0.704532 0.712345
          0.69705 0.711335 0.707019 0.517732 0.683886 0.688252
          0.68899 0.69607 0.693775 0.698994 0.698367 0.685428
          0.692833 0.704536 0.71144 0.697732 0.712459 0.709097
          0.699685 0.695359 0.694306 0.704656 0.698073 0.714093
          0.726699 0.692438 0.692452 0.709481 0.712217 0.702666
          0.7102 0.706768 0.712662 0.716903 0.719801 0.707342
          0.526768 0.715428 0.682077 0.69835 0.702093 0.697058
          0.711586 0.68064 0.703576 0.710708 0.712303 0.683424
          0.699098 0.717197 0.70154 0.695906 0.694204 0.691194
          0.706245 0.688345 0.705207 0.713543 0.705908 0.698759
          0.698636 0.71359 0.709718 0.710526 0.709473 0.712966
          0.714676 0.717636 0.709715 0.515057 0.678694 0.676705
          0.696772 0.676029 0.696911 0.692155 0.697589 0.685713
          0.708788 0.697223 0.690389 0.697847 0.710108 0.693253
          0.694765 0.696247 0.706298 0.710429 0.701745 0.688524
          0.699582 0.692068 0.697161 0.696882 0.694586 0.685144
          0.692938 0.687368 0.680846 0.693455 0.688989 0.692891
          0.531063 0.700161 0.700576 0.681688 0.677451 0.692805
          0.702437 0.692847 0.700734 0.701514 0.690837 0.705982
          0.704128 0.692944 0.710881 0.698839 0.709364 0.709343
          0.699377 0.705676 0.701065 0.69771 0.686529 0.699884
          0.682281 0.688711 0.705602 0.694386 0.686945 0.693305
          0.692786 0.694963 0.687634 0.513967 0.670738 0.69573
          0.706051 0.684391 0.682819 0.695435 0.700416 0.700847
          0.701912 0.681709 0.694643 0.696226 0.68954 0.690279
          0.6954 0.702023 0.705928 0.695759 0.696995 0.702494
          0.70245 0.693754 0.711766 0.705274 0.701511 0.692906
          0.694861 0.693733 0.708046 0.699325 0.677573 0.69651
          0.519375 0.68455 0.704092 0.707871 0.703258 0.69338
          0.694105 0.699078 0.689357 0.704033 0.694674 0.713329
          0.707447 0.705475 0.701164 0.69613 0.705542 0.700282
          0.704746 0.704298 0.701155 0.690276 0.704812 0.674588
          0.700225 0.696553 0.690035 0.684085 0.704245 0.700349
          0.679665 0.685428 0.686262 0.51206 0.669189 0.694773
          0.687282 0.680884 0.694553 0.68775 0.687787 0.692086
          0.699362 0.694979 0.702164 0.705877 0.696573 0.692954
          0.709314 0.708132 0.698496 0.693654 0.696555 0.70855
          0.697126 0.716417 0.697661 0.705673 0.715137 0.727368
          0.718792 0.712197 0.700377 0.704963 0.708376 0.720591
          0.535872 0.703707 0.698814 0.71769 0.68839 0.701019
          0.705121 0.698466 0.707457 0.696801 0.689815 0.697355
          0.712153 0.70519 0.695515 0.705406 0.703147 0.698665
          0.706129 0.704904 0.698392 0.703177 0.687909 0.709616
          0.705322 0.688734 0.703602 0.698494 0.69539 0.709313
          0.695512 0.698731 0.6814 0.529003 0.703913 0.696061
          0.71801 0.699776 0.699532 0.705008 0.698451 0.714988
          0.696715 0.698918 0.69304 0.713991 0.694507 0.715202
          0.703691 0.687947 0.693917 0.702539 0.696751 0.692306
          0.713704 0.693824 0.6959 0.693726 0.703734 0.683849
          0.681772 0.693624 0.690699 0.708831 0.697201 0.68312
          0.51898 0.691833 0.692901 0.697936 0.704817 0.692619
          0.694373 0.693573 0.704983 0.703784 0.695195 0.701907
          0.71835 0.690469 0.699299 0.708178 0.701628 0.699074
          0.693666 0.711259 0.693382 0.699808 0.699741 0.702826
          0.685831 0.676847 0.690142 0.702313 0.695309 0.700149
          0.684656 0.68847 0.690415 0.537617 0.720979 0.700579
          0.69786 0.691117 0.714459 0.701474 0.696638 0.693309
          0.693524 0.703198 0.681825 0.697842 0.710814 0.684271
          0.693124 0.697544 0.69185 0.69647 0.708322 0.709364
          0.70831 0.708511 0.709767 0.696618 0.726755 0.708681
          0.70326 0.709602 0.714728 0.703084 0.70333 0.701643
          0.520562 0.704907 0.691042 0.69644 0.706005 0.690313
          0.703366 0.70377 0.696409 0.691657 0.704906 0.702585
          0.684714 0.717597 0.690319 0.679872 0.70086 0.704953
          0.711378 0.696269 0.696511 0.69762 0.691829 0.692665
          0.693294 0.708558 0.695848 0.689564 0.675936 0.70374
          0.701887 0.700951 0.682089 0.527141 0.704264 0.712214
          0.698466 0.700874 0.688474 0.699463 0.708377 0.704326
          0.705591 0.70292 0.700788 0.698725 0.705945 0.697248
          0.694473 0.688779 0.696215 0.709131 0.70325 0.711037
          0.703947 0.707379 0.706977 0.707312 0.716247 0.706705
          0.720816 0.705622 0.707745 0.707878 0.698224 0.719157
          0.514926 0.6592 0.699063 0.704942 0.686749 0.691048
          0.684605 0.699832 0.705191 0.69849 0.684514 0.688663
          0.681942 0.688153 0.702376 0.69934 0.697191 0.702717
          0.70245 0.690447 0.718865 0.701248 0.7106 0.729613
          0.711428 0.710775 0.710287 0.717504 0.723394 0.710901
          0.705159 0.723817 0.726314 0.520823 0.684296 0.683478
          0.683292 0.687276 0.690811 0.693069 0.694896 0.693132
          0.701974 0.704563 0.695291 0.708217 0.688657 0.708552
          0.700869 0.709647 0.702738 0.694739 0.696638 0.70499
          0.702691 0.710472 0.695032 0.707743 0.722286 0.709981
          0.709121 0.709979 0.711768 0.705047 0.713949 0.712123
          0.510244 0.680608 0.676346 0.685258 0.688643 0.685948
          0.696692 0.691278 0.696107 0.719099 0.695133 0.698307
          0.70493 0.710438 0.709002 0.701031 0.69005 0.697209
          0.710349 0.695204 0.707457 0.719473 0.71742 0.704535
          0.688689 0.705777 0.704072 0.700423 0.720927 0.707899
          0.705398 0.713182 0.709289 0.546683 0.716453 0.704323
          0.713566 0.714461 0.70295 0.692358 0.697473 0.704552
          0.69257 0.710798 0.696138 0.708548 0.716844 0.694365
          0.708904 0.682642 0.692288 0.695417 0.699406 0.699341
          0.705449 0.701671 0.69922 0.696937 0.711988 0.705814
          0.712013 0.710172 0.711319 0.711941 0.707048 0.710758
          0.514006 0.683059 0.7062 0.69027 0.686748 0.684095
          0.689023 0.681023 0.683952 0.689527 0.696828 0.684638
          0.702501 0.705613 0.709435 0.696955 0.693714 0.688738
          0.702631 0.712831 0.690218 0.69467 0.683707 0.69131
          0.699749 0.709192 0.686465 0.68687 0.692795 0.694854
          0.694421 0.689037 0.686252 0.540613 0.694517 0.702644
          0.707146 0.687049 0.706759 0.701443 0.704745 0.691151
          0.716945 0.704855 0.694706 0.707661 0.685623 0.717564
          0.691449 0.710387 0.70286 0.701768 0.69982 0.695872
          0.696989 0.6914 0.68665 0.691286 0.698584 0.71284
          0.711178 0.703833 0.689589 0.705426 0.69941 0.698747
          0.526361 0.676582 0.701715 0.694866 0.68198 0.69107
          0.691499 0.70152 0.696156 0.70104 0.681726 0.686631
          0.70028 0.716049 0.702795 0.700093 0.702679 0.704137
          0.698637 0.705441 0.692868 0.695268 0.699483 0.69617
          0.700443 0.684388 0.686288 0.69644 0.693979 0.696228
          0.682577 0.697091 0.693823 0.524374 0.686685 0.696357
          0.688766 0.68273 0.690382 0.669998 0.695925 0.694203
          0.711815 0.692142 0.694522 0.716258 0.687465 0.704911
          0.711581 0.688632 0.697747 0.696785 0.706914 0.712193
          0.713188 0.710091 0.721234 0.722857 0.711042 0.713822
          0.712869 0.709616 0.703867 0.709766 0.710922 0.721616
          0.519338 0.672916 0.693545 0.691757 0.691555 0.675924
          0.678152 0.704623 0.692204 0.697577 0.70049 0.691562
          0.694108 0.684141 0.695432 0.717689 0.700927 0.704661
          0.697019 0.710305 0.708454 0.707254 0.698281 0.695079
          0.692853 0.685087 0.690958 0.701458 0.688402 0.690409
          0.693298 0.691935 0.708791 0.514398 0.682984 0.687923
          0.687268 0.687447 0.686308 0.700419 0.682143 0.684569
          0.698753 0.713395 0.705204 0.692633 0.710601 0.698005
          0.690948 0.69996 0.697104 0.699865 0.699424 0.702886
          0.687477 0.702149 0.685042 0.685668 0.705089 0.690262
          0.692351 0.691091 0.679547 0.6872 0.690426 0.689776
          0.526562 0.702521 0.682825 0.703353 0.698127 0.701928
          0.688007 0.689416 0.701113 0.688279 0.706043 0.703736
          0.703118 0.716179 0.700124 0.715459 0.693802 0.699155
          0.715655 0.687833 0.695046 0.713981 0.693018 0.705158
          0.714335 0.720549 0.712276 0.706112 0.70674 0.707668
          0.727256 0.71451 0.71574 0.534498 0.696231 0.683912
          0.706376 0.700126 0.710774 0.707852 0.696159 0.709413
          0.690562 0.699832 0.708984 0.700315 0.706062 0.691763
          0.700876 0.710024 0.689438 0.705915 0.692024 0.717462
          0.69318 0.690584 0.704826 0.720777 0.707239 0.693458
          0.707179 0.719682 0.708612 0.718086 0.713833 0.712182
          0.519284 0.672393 0.698358 0.700881 0.692843 0.681428
          0.683063 0.696788 0.689331 0.710477 0.694437 0.686975
          0.707276 0.680428 0.707069 0.69827 0.704622 0.70162
          0.694994 0.699358 0.708893 0.710239 0.688816 0.698671
          0.697743 0.694184 0.712055 0.704671 0.698597 0.706443
          0.688611 0.712703 0.706631 0.538484 0.696272 0.683057
          0.689209 0.706737 0.697981 0.685639 0.71209 0.694488
          0.697851 0.690668 0.709916 0.69463 0.702097 0.700634
          0.69382 0.697504 0.709879 0.697667 0.699879 0.704663
          0.704451 0.70232 0.697746 0.708562 0.709488 0.704285
          0.705318 0.710454 0.714308 0.702614 0.70563 0.708201
          0.523779 0.689146 0.688951 0.684108 0.68189 0.678405
          0.686378 0.709882 0.682331 0.701433 0.705068 0.698839
          0.700477 0.702427 0.700097 0.70318 0.692887 0.707865
          0.694741 0.711853 0.691345 0.686232 0.678696 0.684289
          0.700343 0.677773 0.689633 0.693643 0.69071 0.691246
          0.683738 0.692429 0.693214 0.520224 0.694716 0.69281
          0.689468 0.709759 0.703394 0.714387 0.697914 0.705827
          0.709763 0.703477 0.703083 0.706146 0.707573 0.700672
          0.703451 0.697884 0.69951 0.694435 0.703965 0.678515
          0.690915 0.674023 0.684794 0.694147 0.6976 0.700151
          0.688306 0.695371 0.694663 0.698807 0.68777 0.697082
          0.543913 0.707867 0.700426 0.694479 0.716 0.696149
          0.707503 0.698624 0.689506 0.705021 0.705171 0.704459
          0.691942 0.698064 0.712605 0.706188 0.705014 0.702942
          0.701758 0.698936 0.704588 0.693982 0.681314 0.690098
          0.691706 0.706973 0.687751 0.689992 0.691488 0.679683
          0.699442 0.710946 0.685594 0.540741 0.710693 0.692852
          0.696635 0.708429 0.688771 0.701187 0.706904 0.705507
          0.69735 0.701067 0.702303 0.69753 0.705112 0.697531
          0.700576 0.695724 0.690723 0.708669 0.694407 0.693804
          0.669838 0.674091 0.700464 0.685596 0.711105 0.681073
          0.7074 0.697532 0.691599 0.712217 0.681029 0.691273
          0.509346 0.666292 0.700125 0.691892 0.691127 0.679719
          0.676945 0.697348 0.687925 0.70479 0.697793 0.6911
          0.722277 0.697389 0.705242 0.706319 0.68958 0.691597
          0.695622 0.695576 0.701544 0.717981 0.723192 0.707367
          0.708741 0.703339 0.711924 0.723406 0.707711 0.711028
          0.714227 0.717957 0.713136 0.50897 0.680055 0.692725
          0.685232 0.679442 0.680198 0.690837 0.713685 0.697241
          0.712203 0.691043 0.699337 0.694824 0.707175 0.699074
          0.704421 0.694354 0.710867 0.688555 0.70143 0.69263
          0.700337 0.693642 0.689434 0.708161 0.690292 0.694664
          0.686689 0.682713 0.694407 0.696376 0.693078 0.67916
          0.518963 0.689894 0.690293 0.684955 0.699153 0.690611
          0.68407 0.704914 0.684422 0.70002 0.703457 0.701233
          0.699755 0.703211 0.693109 0.705644 0.697866 0.694225
          0.70454 0.692428 0.718865 0.726763 0.714664 0.715758
          0.720278 0.726423 0.715091 0.713437 0.712715 0.714458
          0.720385 0.715995 0.706418 0.523778 0.682579 0.709496
          0.695982 0.706071 0.699198 0.688966 0.706341 0.691919
          0.71316 0.685512 0.701908 0.691266 0.689504 0.692562
          0.689747 0.701098 0.713969 0.679687 0.703269 0.687463
          0.694631 0.704156 0.710472 0.69937 0.691163 0.69382
          0.710076 0.687903 0.691156 0.674132 0.698628 0.689775
          0.540275 0.702981 0.715312 0.697261 0.703753 0.689
          0.707793 0.695816 0.704494 0.706389 0.693963 0.691231
          0.701719 0.699965 0.710928 0.710753 0.690468 0.712665
          0.699562 0.690436 0.687719 0.695585 0.697509 0.696379
          0.701795 0.696968 0.693407 0.70273 0.687259 0.703864
          0.709817 0.687737 0.707681 0.524232 0.682917 0.704585
          0.699425 0.703535 0.718089 0.686473 0.713877 0.692026
          0.70793 0.696376 0.696803 0.708318 0.684824 0.705013
          0.680357 0.704209 0.699153 0.695449 0.709366 0.712839
          0.690994 0.689729 0.693017 0.696452 0.69995 0.703481
          0.705281 0.694987 0.704101 0.68875 0.685409 0.705316
          0.534101 0.695522 0.695508 0.699455 0.684239 0.699242
          0.692135 0.693689 0.680699 0.678451 0.684623 0.695454
          0.706838 0.714897 0.691102 0.677485 0.712944 0.710999
          0.70168 0.687175 0.690258 0.694951 0.703711 0.700354
          0.709052 0.701696 0.682146 0.712379 0.720944 0.707893
          0.693409 0.695545 0.71016 0.522041 0.693483 0.666567
          0.686783 0.695232 0.686819 0.689948 0.684842 0.714466
          0.687194 0.68835 0.69266 0.70713 0.718237 0.702744
          0.708996 0.689034 0.702389 0.705161 0.702255 0.684241
          0.692354 0.68617 0.680443 0.701915 0.697601 0.69549
          0.683587 0.690203 0.692598 0.683858 0.684523 0.688337
          0.536847 0.713829 0.697573 0.7062 0.706454 0.70188
          0.697157 0.693645 0.692596 0.694088 0.702371 0.693458
          0.699675 0.712138 0.70362 0.685689 0.690139 0.706334
          0.702899 0.709284 0.685827 0.683972 0.679066 0.692948
          0.696368 0.697453 0.682585 0.698897 0.691834 0.686621
          0.697973 0.702349 0.693153 0.534741 0.681255 0.708515
          0.714746 0.681698 0.687602 0.699515 0.695765 0.693829
          0.702091 0.695191 0.705532 0.710535 0.691203 0.702332
          0.712267 0.702642 0.691407 0.697072 0.69984 0.692362
          0.705409 0.6905 0.699203 0.709195 0.685406 0.702332
          0.700076 0.704108 0.713343 0.692839 0.701956 0.695722
          0.531971 0.692486 0.713771 0.693644 0.687242 0.705881
          0.699697 0.692245 0.692687 0.70513 0.695756 0.708502
          0.691086 0.694361 0.700776 0.686737 0.710257 0.708007
          0.686209 0.692425 0.698695 0.715153 0.700695 0.724357
          0.7207 0.701182 0.713892 0.704688 0.722986 0.707852
          0.708102 0.717631 0.707402 0.50946 0.67816 0.694107
          0.69945 0.683862 0.67983 0.685522 0.689935 0.703833
          0.694582 0.692416 0.696328 0.720034 0.693253 0.695507
          0.697653 0.697928 0.694387 0.692721 0.702791 0.709871
          0.705649 0.709311 0.717765 0.714908 0.703458 0.716969
          0.714072 0.690807 0.701548 0.712583 0.711893 0.712238
          0.515426 0.683643 0.691998 0.678863 0.699892 0.687201
          0.688623 0.697008 0.695377 0.680896 0.684903 0.702667
          0.702554 0.696909 0.716878 0.698636 0.702998 0.703497
          0.711066 0.695223 0.708336 0.725011 0.709369 0.709771
          0.714222 0.70037 0.718217 0.702847 0.724725 0.723794
          0.707858 0.71559 0.724299 0.534945 0.700704 0.707059
          0.704749 0.706054 0.704335 0.707535 0.699085 0.686941
          0.705516 0.704581 0.701469 0.70962 0.698584 0.700622
          0.693432 0.697571 0.711598 0.707536 0.7025 0.696128
          0.695126 0.698678 0.70284 0.717019 0.719565 0.708976
          0.712123 0.699464 0.710744 0.706474 0.716833 0.710968
          0.541284 0.675048 0.696826 0.685839 0.703118 0.681809
          0.703816 0.704884 0.713073 0.676675 0.689339 0.717845
          0.707645 0.698568 0.712116 0.709317 0.70065 0.709631
          0.698754 0.686401 0.704818 0.71187 0.717193 0.701649
          0.70656 0.701499 0.718822 0.720367 0.703892 0.70443
          0.693561 0.696399 0.692758 0.532265 0.685299 0.679204
          0.680964 0.696626 0.677463 0.695751 0.703991 0.697687
          0.715035 0.692712 0.708027 0.682981 0.708091 0.70083
          0.707737 0.677124 0.710092 0.698226 0.706815 0.717026
          0.713621 0.707705 0.701268 0.715499 0.714085 0.691673
          0.692124 0.706883 0.707185 0.729903 0.698015 0.712161
          0.534758 0.693054 0.695461 0.698257 0.70084 0.700154
          0.686793 0.704332 0.691057 0.699475 0.691504 0.702464
          0.685084 0.706656 0.69994 0.696401 0.702438 0.704494
          0.6994 0.69988 0.721329 0.715891 0.697603 0.7
          0.716711 0.692497 0.709708 0.716991 0.706091 0.713285
          0.698204 0.708754 0.714006 0.521863 0.667839 0.683117
          0.701037 0.675587 0.703439 0.694264 0.686076 0.696351
          0.712349 0.700614 0.70705 0.697137 0.709501 0.695807
          0.699668 0.712486 0.69403 0.714355 0.694799 0.71807
          0.713146 0.705498 0.707353 0.717172 0.720874 0.710192
          0.709978 0.706567 0.70467 0.705787 0.702667 0.705353
          0.533487 0.718985 0.684224 0.707505 0.695562 0.689076
          0.704425 0.691836 0.676152 0.699614 0.700422 0.711299
          0.699396 0.718176 0.688853 0.720595 0.697354 0.691541
          0.692615 0.694257 0.700039 0.696703 0.718018 0.704281
          0.721834 0.718751 0.690737 0.70422 0.697299 0.702451
          0.714424 0.715628 0.719664 0.525012 0.669964 0.70263
          0.706071 0.690376 0.686816 0.69406 0.69472 0.705107
          0.700031 0.694164 0.690954 0.702031 0.680189 0.706226
          0.702852 0.702789 0.6965 0.691711 0.701873 0.696242
          0.691726 0.706883 0.70355 0.706924 0.698236 0.709263
          0.704544 0.704131 0.710915 0.694546 0.696118 0.700199
          0.534666 0.678764 0.704506 0.69799 0.693824 0.706545
          0.688162 0.703199 0.681119 0.701524 0.692411 0.706958
          0.700168 0.701282 0.705643 0.689313 0.694218 0.703143
          0.699193 0.705289 0.700228 0.702696 0.695549 0.708066
          0.696033 0.683952 0.687022 0.696622 0.695316 0.692303
          0.695061 0.69846 0.689689 0.532269 0.71689 0.705112
          0.70301 0.695646 0.697309 0.70304 0.695426 0.689581
          0.694481 0.697544 0.714989 0.700182 0.702932 0.701523
          0.694423 0.703398 0.686268 0.716468 0.701068 0.690613
          0.702035 0.686244 0.686244 0.689638 0.709822 0.693757
          0.700214 0.689348 0.694635 0.692525 0.698207 0.701743
          0.519398 0.709116 0.687589 0.705861 0.708539 0.692204
          0.702835 0.711509 0.706284 0.694243 0.695316 0.704653
          0.703365 0.711357 0.687053 0.704989 0.709392 0.698441
          0.703354 0.701843 0.690244 0.688903 0.711714 0.68434