<?xml version="1.0"?>
<VTKFile type="PolyData" version="0.1" byte_order="LittleEndian" header_type="UInt32" compressor="vtkZLibDataCompressor">
  <PolyData>
    <Piece NumberOfPoints="7920" NumberOfVerts="0" NumberOfLines="0" NumberOfStrips="0" NumberOfPolys="0">
      <PointData Scalars="Calcium Concentration">
        <DataArray type="Float32" Name="Calcium Concentration" format="ascii" RangeMin="0.5762330293655396" RangeMax="0.742235004901886">
          0.608141 0.715053 0.713871 0.695187 0.702281 0.69994
          0.697262 0.723414 0.697853 0.683507 0.705672 0.6994
          0.695348 0.708538 0.697735 0.704711 0.694223 0.700641
          0.692425 0.719434 0.695888 0.683866 0.686897 0.696457
          0.690224 0.68563 0.706218 0.689845 0.688836 0.693514
          0.710342 0.695434 0.674919 0.625531 0.695379 0.69908
          0.700332 0.689708 0.691998 0.691643 0.703525 0.693243
          0.705264 0.691215 0.703535 0.693494 0.694469 0.717197
          0.686688 0.712364 0.693588 0.693329 0.70337 0.687701
          0.697973 0.676798 0.689551 0.678983 0.695097 0.687595
          0.684421 0.688661 0.693641 0.6987 0.68269 0.691343
          0.606717 0.692507 0.703532 0.690888 0.691707 0.683913
          0.696982 0.695007 0.708314 0.701843 0.703799 0.700321
          0.688757 0.704059 0.699493 0.705748 0.707521 0.711583
          0.707488 0.700725 0.720335 0.703601 0.714051 0.700794
          0.709786 0.710882 0.701442 0.706808 0.71251 0.700317
          0.711501 0.703416 0.713931 0.605752 0.702043 0.709932
          0.706386 0.697024 0.691752 0.704092 0.695434 0.707032
          0.701664 0.692281 0.697664 0.701724 0.69845 0.704933
          0.697679 0.695987 0.701735 0.704504 0.704528 0.693843
          0.692191 0.693886 0.693648 0.683317 0.7123 0.705887
          0.690043 0.705042 0.699617 0.699072 0.699442 0.704101
          0.592468 0.678551 0.68778 0.700546 0.689048 0.68957
          0.687767 0.703397 0.693269 0.695607 0.700831 0.695623
          0.700814 0.703467 0.700982 0.696499 0.699481 0.688221
          0.696152 0.702829 0.689048 0.695274 0.695731 0.681731
          0.695962 0.691381 0.686797 0.703188 0.687048 0.687353
          0.687262 0.691853 0.697707 0.609886 0.70333 0.702878
          0.704215 0.704135 0.70108 0.692135 0.703003 0.710891
          0.710545 0.70254 0.70789 0.698106 0.70237 0.698879
          0.698804 0.70784 0.691193 0.715482 0.694618 0.70222
          0.707295 0.695863 0.692413 0.716675 0.702972 0.704191
          0.690769 0.694967 0.717338 0.723688 0.713804 0.701951
          0.601881 0.67694 0.684528 0.695024 0.691261 0.697355
          0.684979 0.697439 0.711061 0.707588 0.695705 0.69453
          0.696421 0.717088 0.696721 0.700643 0.694209 0.70042
          0.70609 0.690148 0.703848 0.710184 0.702872 0.705136
          0.697058 0.720034 0.709354 0.716435 0.724339 0.705795
          0.723931 0.705007 0.71252 0.595033 0.682174 0.675384
          0.693512 0.684624 0.696152 0.678478 0.670908 0.710336
          0.7044 0.687244 0.703461 0.703692 0.696667 0.702951
          0.691047 0.701995 0.700698 0.70711 0.703109 0.685378
          0.682659 0.68159 0.688779 0.699394 0.692986 0.694228
          0.683468 0.69165 0.671817 0.70336 0.683833 0.69373
          0.598001 0.694579 0.688885 0.691467 0.688549 0.693642
          0.687185 0.702932 0.694564 0.695465 0.699268 0.705241
          0.695352 0.691264 0.693384 0.702931 0.708346 0.685038
          0.695588 0.697167 0.705539 0.692781 0.706565 0.701146
          0.713281 0.710705 0.707784 0.701502 0.70696 0.704232
          0.712523 0.706293 0.714134 0.617663 0.700596 0.697398
          0.70605 0.704347 0.689702 0.70765 0.69862 0.694469
          0.696879 0.71338 0.693182 0.705394 0.700891 0.698216
          0.691411 0.701669 0.697106 0.689286 0.701176 0.703854
          0.695098 0.702515 0.704347 0.708071 0.713674 0.706816
          0.708603 0.697088 0.705558 0.717369 0.696961 0.706309
          0.621196 0.693634 0.695239 0.700284 0.69595 0.691873
          0.706216 0.693776 0.704567 0.693802 0.705089 0.709281
          0.70159 0.702935 0.698962 0.713719 0.69628 0.701159
          0.692777 0.700975 0.710416 0.706379 0.722075 0.692522
          0.693511 0.717012 0.708293 0.697128 0.700259 0.708888
          0.715603 0.719409 0.711154 0.602657 0.684383 0.690671
          0.687062 0.679262 0.683951 0.686989 0.710964 0.694926
          0.696753 0.69733 0.696972 0.706254 0.704774 0.699235
          0.698871 0.706343 0.71113 0.693436 0.711106 0.696998
          0.686673 0.688973 0.672713 0.679592 0.690567 0.674675
          0.691112 0.688941 0.692039 0.704639 0.695535 0.702453
          0.614042 0.696143 0.689775 0.723731 0.69038 0.70705
          0.707677 0.696091 0.701492 0.687523 0.689643 0.694073
          0.713343 0.695414 0.692471 0.700954 0.696571 0.703295
          0.692755 0.712187 0.687241 0.703115 0.690047 0.686625
          0.699653 0.70255 0.691272 0.69858 0.695637 0.696013
          0.694919 0.694739 0.692294 0.616283 0.693856 0.694141
          0.712176 0.708672 0.700137 0.712914 0.724768 0.70159
          0.694309 0.697674 0.704333 0.69323 0.70026 0.711649
          0.698931 0.687856 0.693609 0.705597 0.684502 0.69497
          0.698766 0.68758 0.681179 0.683982 0.689036 0.688624
          0.688483 0.695605 0.678236 0.688529 0.686492 0.695484
          0.595028 0.673434 0.693897 0.691508 0.685881 0.676421
          0.684407 0.705831 0.679616 0.690826 0.710957 0.69129
          0.70332 0.702878 0.704989 0.699286 0.710105 0.703887
          0.697086 0.700193 0.698342 0.704549 0.705332 0.71326
          0.706734 0.703252 0.71451 0.726909 0.709376 0.719206
          0.70458 0.714255 0.713889 0.612895 0.695646 0.694959
          0.708475 0.701857 0.701227 0.694505 0.697564 0.700445
          0.707341 0.699819 0.693917 0.699869 0.706259 0.691539
          0.702685 0.696631 0.698334 0.702649 0.704591 0.682474
          0.690733 0.694749 0.685457 0.689102 0.695574 0.692353
          0.692328 0.685166 0.684419 0.6977 0.677273 0.680269
          0.594902 0.689815 0.67702 0.68484 0.689907 0.694387
          0.686063 0.70134 0.692941 0.698414 0.695215 0.69693
          0.704518 0.690929 0.689311 0.693551 0.696897 0.720762
          0.690139 0.691157 0.685636 0.689019 0.699166 0.687862
          0.693111 0.691199 0.693648 0.694711 0.697076 0.702285
          0.698137 0.693182 0.688214 0.599542 0.690242 0.680717
          0.681602 0.692359 0.683578 0.688455 0.709613 0.702099
          0.700673 0.687498 0.699787 0.698995 0.712695 0.685384
          0.708611 0.697585 0.700826 0.708398 0.697321 0.709137
          0.724394 0.702603 0.703607 0.711753 0.715147 0.69875
          0.697971 0.711817 0.699622 0.721077 0.700863 0.716737
          0.582447 0.685432 0.685399 0.686631 0.694127 0.67974
          0.688644 0.716952 0.699286 0.699779 0.709493 0.713699
          0.705125 0.705706 0.707594 0.703647 0.698242 0.695033
          0.69009 0.697684 0.68575 0.708119 0.682814 0.686477
          0.697754 0.688941 0.689595 0.681315 0.70207 0.682401
          0.702864 0.701417 0.71318 0.616391 0.699385 0.704782
          0.701446 0.697457 0.693548 0.703019 0.702384 0.700916
          0.697909 0.697316 0.707878 0.699065 0.710886 0.70285
          0.709623 0.708737 0.695813 0.706899 0.691764 0.699652
          0.686914 0.6895 0.684831 0.689231 0.682723 0.690714
          0.691209 0.689427 0.686281 0.691828 0.682588 0.6839
          0.613883 0.712321 0.707309 0.718107 0.711428 0.686493
          0.692117 0.695555 0.721542 0.69931 0.705173 0.700673
          0.693857 0.696855 0.688862 0.708969 0.701019 0.705497
          0.693511 0.699049 0.6851 0.693704 0.674328 0.69783
          0.690476 0.696226 0.685581 0.688354 0.696464 0.699217
          0.705984 0.690587 0.686971 0.617667 0.706519 0.697578
          0.69738 0.694535 0.697821 0.718056 0.682936 0.704696
          0.703301 0.686328 0.708032 0.700784 0.706156 0.712069
          0.696877 0.703729 0.690708 0.706919 0.687014 0.706638
          0.705875 0.715725 0.713483 0.706376 0.716078 0.705058
          0.704443 0.722872 0.71229 0.708649 0.703817 0.699825
          0.616002 0.706598 0.694173 0.727014 0.698815 0.690533
          0.686569 0.700545 0.706809 0.694235 0.703366 0.695536
          0.698518 0.708554 0.674606 0.719343 0.708332 0.682769
          0.691653 0.692378 0.726595 0.691992 0.707925 0.699976
          0.706417 0.719325 0.711479 0.711512 0.717937 0.722588
          0.734125 0.709973 0.713679 0.613508 0.715199 0.696674
          0.696921 0.700928 0.699845 0.697633 0.704636 0.708185
          0.705372 0.693806 0.697671 0.714679 0.700801 0.706133
          0.715615 0.686785 0.704492 0.693269 0.689237 0.702796
          0.711512 0.726331 0.705642 0.716233 0.711841 0.712273
          0.71972 0.709616 0.708543 0.727641 0.70305 0.698211
          0.605802 0.684682 0.697644 0.698934 0.704359 0.698967
          0.69119 0.697915 0.715634 0.707251 0.688938 0.690616
          0.701855 0.691575 0.715494 0.695601 0.704497 0.687516
          0.697216 0.703012 0.688994 0.682774 0.685277 0.686268
          0.692753 0.711834 0.696001 0.694453 0.680741 0.692109
          0.69006 0.684694 0.688967 0.618009 0.691485 0.698888
          0.680912 0.697995 0.694363 0.712846 0.69933 0.70385
          0.697487 0.70232 0.693986 0.69271 0.694194 0.718685
          0.699632 0.696863 0.693868 0.700801 0.702166 0.698282
          0.681838 0.686501 0.688875 0.684753 0.698361 0.686878
          0.68772 0.701243 0.700843 0.68813 0.701288 0.702732
          0.602575 0.715693 0.696751 0.719398 0.69574 0.69062
          0.694563 0.695819 0.716081 0.698978 0.702121 0.702587
          0.690284 0.709156 0.693664 0.714693 0.697593 0.701126
          0.706398 0.697382 0.692649 0.687848 0.680461 0.675873
          0.694198 0.685647 0.682969 0.683903 0.67989 0.686427
          0.699977 0.687871 0.680395 0.596158 0.694839 0.691699
          0.687782 0.70079 0.69284 0.695677 0.70669 0.694722
          0.683496 0.694784 0.694271 0.69233 0.713132 0.700246
          0.700572 0.707088 0.681033 0.715872 0.705672 0.678821
          0.686012 0.688714 0.6825 0.694682 0.687778 0.689039
          0.687666 0.690213 0.713265 0.709314 0.691537 0.689397
          0.611461 0.709046 0.710987 0.701493 0.701238 0.701412
          0.701173 0.703498 0.706468 0.715129 0.703831 0.698591
          0.705885 0.700713 0.707584 0.707611 0.682394 0.705181
          0.699245 0.69155 0.696053 0.693004 0.688415 0.690232
          0.689091 0.675511 0.681486 0.694408 0.695749 0.681163
          0.696298 0.684914 0.691786 0.609704 0.708196 0.716089
          0.69361 0.70584 0.688129 0.702435 0.697589 0.705822
          0.695589 0.704782 0.698853 0.690565 0.71006 0.698906
          0.699251 0.700685 0.702972 0.705358 0.688594 0.700008
          0.694463 0.675615 0.696755 0.693077 0.69083 0.683385
          0.692986 0.695565 0.695574 0.701522 0.696332 0.689445
          0.589184 0.684298 0.693566 0.698502 0.688235 0.685794
          0.691418 0.698533 0.688254 0.705146 0.696983 0.710459
          0.694305 0.692114 0.693609 0.69992 0.708651 0.696317
          0.71296 0.696461 0.717732 0.705144 0.705752 0.716473
          0.725149 0.712578 0.715294 0.706353 0.709776 0.704184
          0.69454 0.713719 0.711261 0.588784 0.688196 0.691871
          0.684472 0.688735 0.684826 0.700786 0.686937 0.684584
          0.689343 0.714858 0.70401 0.707281 0.70268 0.686438
          0.7091 0.70697 0.690552 0.709527 0.694072 0.715801
          0.713474 0.705369 0.694933 0.699773 0.692273 0.701225
          0.709592 0.706138 0.705007 0.718435 0.721915 0.701757
          0.620244 0.708447 0.684119 0.701671 0.703066 0.698721
          0.704472 0.686703 0.70944 0.702029 0.712056 0.698501
          0.686492 0.699098 0.710978 0.709658 0.712521 0.692024
          0.699274 0.694174 0.702933 0.697386 0.70053 0.692962
          0.695984 0.714978 0.706081 0.70908 0.713595 0.718054
          0.719993 0.708174 0.698484 0.599045 0.688661 0.682569
          0.693351 0.67297 0.689212 0.687966 0.706513 0.686877
          0.713908 0.696527 0.6879 0.705741 0.712643 0.690191
          0.704312 0.698365 0.696679 0.69136 0.706687 0.6841
          0.6971 0.689356 0.70184 0.702044 0.701897 0.692819
          0.698131 0.691665 0.696267 0.688915 0.694606 0.704726
          0.600996 0.69686 0.71324 0.678027 0.683887 0.687226
          0.694208 0.694788 0.699066 0.687401 0.702979 0.684887
          0.710106 0.69732 0.700123 0.701006 0.699783 0.700715
          0.696105 0.708851 0.702062 0.700013 0.68847 0.705128
          0.695719 0.696314 0.697199 0.68069 0.694937 0.691595
          0.702271 0.695893 0.689463 0.576233 0.680129 0.69674
          0.703337 0.691439 0.688231 0.689802 0.704954 0.687462
          0.693775 0.695119 0.694217 0.700583 0.689122 0.701473
          0.692896 0.703216 0.694211 0.686322 0.694595 0.70098
          0.697692 0.687773 0.702595 0.707805 0.710939 0.700154
          0.689601 0.696903 0.697684 0.682984 0.688625 0.693629
          0.596302 0.682263 0.702847 0.700519 0.69738 0.696534
          0.703408 0.703057 0.686142 0.709105 0.70552 0.688021
          0.700132 0.71112 0.700022 0.702895 0.703608 0.693424
          0.713326 0.693609 0.68458 0.69087 0.699313 0.681849
          0.703587 0.694905 0.674909 0.695447 0.703062 0.700265
          0.682933 0.69045 0.679157 0.582188 0.685266 0.699805
          0.688912 0.676002 0.693627 0.689712 0.698001 0.681712
          0.701425 0.684027 0.708197 0.714471 0.70512 0.694418
          0.701074 0.707801 0.716365 0.697426 0.69306 0.70865
          0.704729 0.720347 0.711766 0.708118 0.706416 0.71891
          0.728689 0.70412 0.698435 0.703374 0.707709 0.718333
          0.618958 0.708517 0.706741 0.709747 0.693433 0.707954
          0.718947 0.704733 0.704841 0.710292 0.695609 0.695353
          0.702759 0.707789 0.699603 0.702042 0.701803 0.708484
          0.705876 0.699454 0.702927 0.702475 0.706353 0.701325
          0.703836 0.68913 0.696498 0.695505 0.695317 0.688368
          0.686901 0.706525 0.678335 0.610913 0.70151 0.689904
          0.708398 0.697296 0.706751 0.693763 0.703615 0.697827
          0.687929 0.708794 0.692913 0.699989 0.691785 0.708549
          0.70018 0.698489 0.700323 0.715593 0.701783 0.685239
          0.697324 0.686582 0.687793 0.684518 0.692241 0.681521
          0.68549 0.69041 0.698157 0.7254 0.694628 0.701221
          0.6011 0.710955 0.694274 0.704754 0.709662 0.704306
          0.706471 0.684661 0.705045 0.707231 0.692602 0.686062
          0.717514 0.698904 0.701467 0.713335 0.69621 0.698295
          0.70355 0.71046 0.689203 0.705108 0.68984 0.690829
          0.68866 0.697706 0.69182 0.693065 0.690287 0.700527
          0.689015 0.696336 0.693461 0.608227 0.722448 0.694277
          0.69978 0.69607 0.703682 0.695829 0.702047 0.700745
          0.697081 0.706937 0.697477 0.704509 0.702485 0.700236
          0.693344 0.726509 0.690476 0.691601 0.704056 0.719283
          0.711761 0.690822 0.713795 0.708553 0.7101 0.70481
          0.717926 0.710239 0.698261 0.703959 0.70061 0.715532
          0.608183 0.709917 0.700144 0.705439 0.703091 0.698751
          0.701193 0.700089 0.707943 0.693902 0.717617 0.698387
          0.689009 0.715627 0.699895 0.684117 0.703173 0.695763
          0.720737 0.700213 0.693279 0.697355 0.696295 0.69149
          0.694328 0.694368 0.689396 0.680493 0.684914 0.698693
          0.703164 0.690916 0.672062 0.609348 0.702123 0.703201
          0.703516 0.697103 0.69842 0.696608 0.700994 0.698252
          0.696014 0.701203 0.708693 0.687312 0.700921 0.702906
          0.69705 0.699529 0.68619 0.696196 0.700308 0.715091
          0.715442 0.709757 0.699595 0.709387 0.714576 0.702173
          0.718249 0.717339 0.711915 0.709235 0.704521 0.716117
          0.58921 0.677537 0.714929 0.690689 0.686582 0.687472
          0.687148 0.695018 0.696156 0.703302 0.681823 0.684195
          0.709385 0.697677 0.706656 0.680834 0.697681 0.702133
          0.694352 0.696693 0.717878 0.708569 0.707188 0.718267
          0.714755 0.712111 0.721834 0.719288 0.719831 0.712295
          0.705747 0.710631 0.724513 0.594038 0.687634 0.688886
          0.681263 0.687891 0.696567 0.68775 0.702296 0.692717
          0.705174 0.701319 0.691462 0.710164 0.683408 0.720677
          0.694051 0.709465 0.688101 0.696447 0.706845 0.709609
          0.71764 0.713718 0.699059 0.712241 0.715065 0.708674
          0.703803 0.712808 0.708019 0.698414 0.707646 0.704552
          0.590643 0.698239 0.68147 0.683887 0.693358 0.678252
          0.689858 0.696691 0.707365 0.701194 0.700721 0.709038
          0.687299 0.709221 0.687583 0.698616 0.697559 0.690966
          0.695148 0.701136 0.706156 0.71493 0.709978 0.7028
          0.703064 0.701834 0.71269 0.69768 0.711961 0.706415
          0.711437 0.722471 0.718749 0.626996 0.705161 0.688764
          0.700262 0.703345 0.697184 0.693779 0.704192 0.711306
          0.694942 0.704141 0.706998 0.70469 0.703148 0.703921
          0.711195 0.698828 0.698802 0.693651 0.699932 0.705404
          0.705015 0.718926 0.695076 0.697639 0.711293 0.717042
          0.712233 0.712898 0.713032 0.722839 0.707013 0.71286
          0.589332 0.673999 0.709115 0.702007 0.701422 0.68812
          0.682127 0.682923 0.682161 0.694129 0.705254 0.678141
          0.701415 0.703805 0.719346 0.69435 0.694389 0.714301
          0.690867 0.700834 0.706705 0.691326 0.702408 0.693231
          0.702011 0.700978 0.680547 0.686106 0.689882 0.692635
          0.700979 0.687831 0.686549 0.615137 0.700032 0.699872
          0.704997 0.686862 0.697584 0.709648 0.701722 0.693924
          0.697256 0.704381 0.695776 0.697221 0.701392 0.714349
          0.689717 0.69824 0.696652 0.697111 0.692586 0.703151
          0.700562 0.682561 0.699075 0.692248 0.69773 0.711048
          0.707215 0.700929 0.694788 0.700038 0.691004 0.692436
          0.593551 0.688917 0.682569 0.707752 0.689809 0.693856
          0.703812 0.703526 0.700138 0.701392 0.681691 0.682103
          0.702669 0.700472 0.716753 0.694261 0.698908 0.697618
          0.693665 0.700071 0.694386 0.688264 0.701903 0.70297
          0.700657 0.696166 0.6864 0.695377 0.696022 0.687461
          0.680413 0.702369 0.705245 0.58615 0.701595 0.695518
          0.696999 0.678126 0.67976 0.68856 0.687119 0.697922
          0.69679 0.708846 0.68094 0.7099 0.698297 0.701205
          0.693639 0.6944 0.700381 0.696434 0.698412 0.714597
          0.708396 0.708536 0.719631 0.727916 0.716533 0.709513
          0.722725 0.706906 0.701072 0.700259 0.706783 0.704924
          0.589505 0.68585 0.702109 0.69532 0.683856 0.682066
          0.691411 0.707011 0.690558 0.70885 0.70137 0.693138
          0.705744 0.690261 0.696084 0.697459 0.706834 0.706959
          0.709022 0.701606 0.713664 0.710322 0.69948 0.707006
          0.689216 0.690699 0.68925 0.700462 0.689288 0.701454
          0.699809 0.680682 0.70645 0.604111 0.690128 0.684366
          0.692005 0.693194 0.694302 0.695738 0.68093 0.70052
          0.700715 0.711474 0.706797 0.694109 0.715572 0.712948
          0.707271 0.708668 0.697419 0.687589 0.713711 0.698824
          0.687832 0.710215 0.680717 0.691035 0.69081 0.68793
          0.689199 0.693834 0.689042 0.707197 0.693846 0.682079
          0.614749 0.70373 0.687847 0.69692 0.709115 0.704387
          0.707257 0.684173 0.711164 0.692007 0.694325 0.694654
          0.692057 0.708478 0.698108 0.721283 0.703655 0.680142
          0.707448 0.693404 0.695694 0.709804 0.693775 0.711847
          0.717992 0.718068 0.703747 0.692697 0.710985 0.703381
          0.722895 0.719929 0.719554 0.60964 0.70155 0.691286
          0.712566 0.692666 0.701117 0.693835 0.701681 0.709171
          0.703703 0.701625 0.704172 0.688734 0.70307 0.688822
          0.705335 0.710392 0.691755 0.692692 0.697074 0.712285
          0.685919 0.699923 0.700676 0.710074 0.700546 0.697236
          0.709403 0.72203 0.711872 0.731473 0.708948 0.710889
          0.589196 0.676746 0.707482 0.688773 0.683144 0.686099
          0.696668 0.705402 0.689324 0.700387 0.681664 0.696447
          0.702684 0.689275 0.703905 0.69829 0.702336 0.701347
          0.690691 0.700688 0.702591 0.704342 0.693735 0.707911
          0.705385 0.695102 0.714295 0.711498 0.704519 0.70026
          0.700961 0.692267 0.703019 0.610759 0.705997 0.693037
          0.694092 0.703042 0.709999 0.689759 0.704416 0.692669
          0.705716 0.700592 0.707915 0.694191 0.707171 0.699917
          0.694048 0.704681 0.69185 0.694796 0.686544 0.690949
          0.704946 0.70529 0.701901 0.711313 0.709501 0.698582
          0.712263 0.710911 0.705969 0.713028 0.715831 0.70653
          0.59134 0.681449 0.692635 0.689239 0.678702 0.676394
          0.68338 0.706408 0.697003 0.690518 0.697429 0.698042
          0.70593 0.686714 0.694329 0.713682 0.698136 0.695085
          0.692026 0.705747 0.701992 0.686964 0.685521 0.685621
          0.692349 0.674535 0.688221 0.69876 0.681491 0.690653
          0.694919 0.687065 0.698725 0.598025 0.710144 0.696461
          0.690998 0.717281 0.694791 0.702666 0.697647 0.699003
          0.689777 0.696529 0.711972 0.700334 0.698725 0.696765
          0.708155 0.693329 0.70489 0.701127 0.696217 0.681727
          0.696538 0.679847 0.695086 0.694678 0.695166 0.703416
          0.681727 0.702831 0.688927 0.688979 0.690704 0.68738
          0.618452 0.701734 0.700994 0.68489 0.711296 0.690127
          0.704861 0.706199 0.690102 0.694716 0.698634 0.712989
          0.688739 0.703704 0.708283 0.710175 0.697871 0.708141
          0.694807 0.695379 0.696497 0.697708 0.679334 0.687695
          0.693692 0.705919 0.686928 0.682179 0.689972 0.678657
          0.689025 0.709749 0.683013 0.621315 0.713938 0.701078
          0.697544 0.717082 0.683632 0.702356 0.706455 0.703473
          0.694923 0.694767 0.697117 0.699566 0.695646 0.689413
          0.691548 0.703678 0.687465 0.706312 0.696934 0.690115
          0.684371 0.67404 0.692927 0.690859 0.696483 0.687111
          0.699915 0.705445 0.697452 0.70682 0.679007 0.684833
          0.592161 0.679578 0.70282 0.697193 0.69146 0.678836
          0.691483 0.685124 0.684429 0.704373 0.694163 0.67671
          0.716314 0.690217 0.692287 0.693849 0.715953 0.710129
          0.697151 0.694297 0.714096 0.710509 0.711904 0.717531
          0.710716 0.720064 0.700897 0.724698 0.710577 0.706449
          0.71061 0.709202 0.70916 0.589887 0.673191 0.688224
          0.67896 0.679969 0.68981 0.695492 0.710101 0.696994
          0.714584 0.69588 0.694663 0.698041 0.704011 0.692926
          0.698638 0.69638 0.719394 0.696335 0.698486 0.682091
          0.691117 0.691312 0.698294 0.70003 0.693654 0.696316
          0.68963 0.692997 0.691672 0.685685 0.698604 0.687244
          0.590315 0.688664 0.708122 0.696364 0.699393 0.680051
          0.681855 0.690841 0.692651 0.695115 0.690728 0.701618
          0.701409 0.698584 0.695171 0.70833 0.702881 0.697887
          0.69776 0.706723 0.709181 0.723402 0.706973 0.716831
          0.702642 0.707991 0.721605 0.702139 0.709617 0.719762
          0.732193 0.701318 0.704414 0.594178 0.697645 0.704632
          0.6912 0.695449 0.694878 0.701967 0.693463 0.69073
          0.712016 0.687496 0.686315 0.711678 0.694536 0.699098
          0.695217 0.704452 0.705219 0.694197 0.708738 0.703272
          0.704043 0.703068 0.700868 0.706993 0.690422 0.694056
          0.694277 0.692218 0.684192 0.676895 0.690291 0.686636
          0.609402 0.691993 0.707599 0.706968 0.695246 0.698649
          0.711919 0.696429 0.699124 0.702676 0.6966 0.694268
          0.686825 0.698203 0.707061 0.701144 0.6914 0.706804
          0.699897 0.697332 0.698937 0.712357 0.699988 0.696102
          0.689831 0.709202 0.696204 0.704102 0.68969 0.701393
          0.701552 0.692031 0.685115 0.608022 0.692335 0.707756
          0.7069 0.690568 0.70448 0.697555 0.706714 0.681686
          0.692321 0.692954 0.690209 0.706238 0.708767 0.70209
          0.691584 0.690144 0.688677 0.695628 0.700073 0.705245
          0.684141 0.703316 0.693479 0.715517 0.710104 0.707541
          0.696664 0.704937 0.69905 0.687133 0.691767 0.695434
          0.615725 0.697262 0.699057 0.700158 0.682421 0.696802
          0.680697 0.696347 0.693034 0.677164 0.690074 0.695334
          0.70339 0.704354 0.689395 0.696535 0.704964 0.706264
          0.710221 0.69797 0.696655 0.704272 0.712618 0.702189
          0.704442 0.69846 0.689923 0.72333 0.717132 0.704806
          0.701392 0.696778 0.706406 0.609257 0.695586 0.679234
          0.686482 0.699276 0.685075 0.693376 0.688374 0.70973
          0.684651 0.694176 0.690109 0.688556 0.704918 0.701386
          0.697851 0.699238 0.701619 0.70625 0.717254 0.682718
          0.688229 0.703083 0.677313 0.688902 0.701979 0.688587
          0.687567 0.692271 0.676823 0.708694 0.691528 0.688539
          0.61664 0.714386 0.70528 0.702227 0.708656 0.709683
          0.695854 0.694029 0.700478 0.700458 0.70235 0.705124
          0.683025 0.70405 0.693598 0.701871 0.69509 0.690288
          0.701641 0.71328 0.674912 0.675011 0.678817 0.690215
          0.692286 0.692325 0.689537 0.692358 0.673978 0.697722
          0.699976 0.704912 0.6891 0.602034 0.697188 0.690748
          0.703189 0.687327 0.696758 0.694978 0.697678 0.691222
          0.696477 0.696027 0.703612 0.711871 0.692661 0.698498
          0.700664 0.692332 0.688977 0.696146 0.70404 0.690005
          0.709485 0.699086 0.700045 0.710519 0.701566 0.701573
          0.702943 0.704475 0.69142 0.686254 0.694034 0.692873
          0.625516 0.69851 0.713209 0.695101 0.69969 0.69695
          0.700869 0.696253 0.704458 0.698066 0.699048 0.694847
          0.702553 0.705815 0.703509 0.693528 0.701252 0.705132
          0.682535 0.691485 0.708638 0.709535 0.711737 0.712294
          0.717786 0.708118 0.702229 0.708666 0.721723 0.702735
          0.710165 0.71093 0.70711 0.589087 0.681007 0.68851
          0.690055 0.685585 0.684998 0.698403 0.684646 0.699443
          0.698311 0.693687 0.696678 0.699835 0.695701 0.696056
          0.697195 0.700672 0.71291 0.7042 0.692267 0.722148
          0.717063 0.714681 0.717178 0.710278 0.697365 0.702883
          0.707577 0.692927 0.710735 0.714233 0.729876 0.712375
          0.596215 0.682757 0.69411 0.676237 0.686485 0.693849
          0.696369 0.685865 0.699198 0.681753 0.693903 0.700341
          0.698226 0.706608 0.702325 0.690368 0.711276 0.697957
          0.698796 0.683992 0.703389 0.714243 0.702911 0.712422
          0.710888 0.710897 0.710451 0.710018 0.706722 0.71209
          0.707665 0.725668 0.71768 0.612403 0.715287 0.700684
          0.69257 0.696549 0.694628 0.711491 0.712993 0.692519
          0.691157 0.704613 0.696877 0.695526 0.698728 0.695867
          0.690629 0.711323 0.704262 0.69567 0.701164 0.704535
          0.70518 0.708386 0.70722 0.704068 0.710762 0.709618
          0.707533 0.704388 0.707098 0.697943 0.721101 0.70952
          0.613871 0.684437 0.714286 0.689669 0.701066 0.689989
          0.705434 0.706451 0.720646 0.686537 0.697157 0.708116
          0.711078 0.694051 0.703605 0.71569 0.698748 0.70448
          0.705082 0.684688 0.709452 0.71412 0.70859 0.707709
          0.714851 0.697225 0.714119 0.716361 0.697495 0.697442
          0.696492 0.701239 0.69932 0.602495 0.68294 0.677161
          0.687632 0.703539 0.683276 0.675603 0.712163 0.694489
          0.711804 0.685746 0.71083 0.699316 0.708242 0.70348
          0.695174 0.687992 0.708189 0.700667 0.710189 0.711613
          0.713863 0.714409 0.699286 0.706212 0.716014 0.702554
          0.698497 0.707471 0.715849 0.715306 0.701557 0.706474
          0.614284 0.69393 0.702942 0.698614 0.705223 0.701244
          0.700808 0.706109 0.686098 0.697782 0.699703 0.698803
          0.710292 0.69413 0.70145 0.714188 0.703492 0.707938
          0.697232 0.700299 0.726322 0.716964 0.706517 0.698831
          0.712077 0.697193 0.710072 0.708675 0.70273 0.704851
          0.707134 0.710926 0.715724 0.587189 0.675214 0.695299
          0.692921 0.687135 0.69869 0.682056 0.683975 0.69998
          0.707035 0.703013 0.706582 0.693254 0.694984 0.691983
          0.700144 0.70835 0.696287 0.711162 0.688042 0.722246
          0.716616 0.693835 0.695357 0.71229 0.726497 0.708007
          0.711008 0.710185 0.712121 0.695402 0.702914 0.710857
          0.616037 0.727485 0.691019 0.707475 0.698818 0.682455
          0.703432 0.687692 0.693025 0.694975 0.721316 0.703415
          0.688896 0.702024 0.695351 0.712231 0.701136 0.690765
          0.698759 0.700394 0.700591 0.704661 0.712531 0.703071
          0.720501 0.712061 0.698183 0.705142 0.698378 0.70369
          0.71957 0.707528 0.720592 0.598025 0.688481 0.69793
          0.70504 0.686584 0.69309 0.694819 0.706207 0.698181
          0.699544 0.695169 0.686923 0.706678 0.684772 0.709982
          0.70469 0.70042 0.712107 0.698232 0.699219 0.695237
          0.705215 0.70438 0.707001 0.710204 0.702156 0.706781
          0.709718 0.699126 0.695374 0.692729 0.700004 0.701868
          0.604853 0.696292 0.688411 0.705771 0.693995 0.69734
          0.708691 0.704128 0.698041 0.708476 0.70065 0.688752
          0.712802 0.70021 0.705106 0.718149 0.694298 0.702486
          0.694625 0.697669 0.695141 0.709393 0.709769 0.704589
          0.693546 0.692754 0.690031 0.69525 0.691439 0.694019
          0.691332 0.692753 0.689599 0.625695 0.704661 0.698708
          0.706316 0.69937 0.702346 0.695853 0.698427 0.705369
          0.700027 0.697474 0.710551 0.685086 0.711553 0.703051
          0.706106 0.701843 0.685301 0.710131 0.708083 0.698576
          0.699133 0.687364 0.684846 0.696522 0.706612 0.693966
          0.702162 0.693799 0.701779 0.703538 0.693678 0.694475
          0.607894 0.702069 0.707154 0.706688 0.694509 0.692535
          0.705924 0.70346 0.71039 0.69678 0.684707 0.706555
          0.692507 0.71144 0.688974 0.707385 0.707446 0.687003
          0.710778 0.714197 0.693579 0.687144 0.711499 0.685673