<?xml version="1.0"?>
<VTKFile type="PolyData" version="0.1" byte_order="LittleEndian" header_type="UInt32" compressor="vtkZLibDataCompressor">
  <PolyData>
    <Piece NumberOfPoints="7920" NumberOfVerts="0" NumberOfLines="0" NumberOfStrips="0" NumberOfPolys="0">
      <PointData Scalars="Calcium Concentration">
        <DataArray type="Float32" Name="Calcium Concentration" format="ascii" RangeMin="0.45079898834228516" RangeMax="0.738303005695343">
          0.466036 0.704754 0.697365 0.685668 0.69911 0.691647
          0.690529 0.704601 0.691173 0.696837 0.690183 0.715717
          0.706691 0.711488 0.694239 0.696201 0.694132 0.702929
          0.717944 0.697465 0.697333 0.674874 0.694689 0.694896
          0.679323 0.697339 0.69179 0.695887 0.695292 0.683443
          0.702234 0.694149 0.688779 0.48202 0.694724 0.701577
          0.693549 0.699561 0.701768 0.697258 0.694323 0.720432
          0.701096 0.698187 0.712481 0.692708 0.707007 0.697151
          0.695695 0.697095 0.69845 0.702162 0.702441 0.690739
          0.695043 0.690456 0.679616 0.674547 0.705495 0.702286
          0.685724 0.683403 0.700986 0.700136 0.680289 0.692767
          0.476413 0.680729 0.685688 0.676437 0.689659 0.676861
          0.69157 0.697209 0.694534 0.704297 0.685301 0.70204
          0.717791 0.710711 0.712307 0.701433 0.7133 0.716303
          0.724852 0.70474 0.717478 0.716694 0.712777 0.712944
          0.706542 0.712649 0.703166 0.708701 0.71489 0.703082
          0.706862 0.708443 0.710448 0.469859 0.691914 0.711385
          0.689587 0.696559 0.691838 0.712116 0.688461 0.710202
          0.703981 0.69552 0.698345 0.687893 0.70433 0.69785
          0.698412 0.694743 0.695768 0.708368 0.701694 0.709158
          0.697855 0.694418 0.697578 0.689254 0.711733 0.702763
          0.697314 0.708327 0.703917 0.698039 0.69914 0.699707
          0.472475 0.681632 0.690854 0.698457 0.680289 0.687845
          0.693132 0.684247 0.704071 0.694458 0.701919 0.689324
          0.704203 0.706144 0.687725 0.703599 0.706227 0.704026
          0.711187 0.690053 0.692706 0.686393 0.695269 0.680643
          0.68589 0.692636 0.68817 0.692278 0.688097 0.694192
          0.686737 0.696544 0.702596 0.497709 0.698316 0.690951
          0.69249 0.686496 0.707292 0.703038 0.698518 0.699336
          0.694226 0.684065 0.699223 0.702396 0.709555 0.698759
          0.701284 0.702149 0.689082 0.71562 0.700407 0.696936
          0.702491 0.704152 0.688708 0.705163 0.720128 0.711722
          0.700417 0.700865 0.707022 0.710675 0.710155 0.705879
          0.476186 0.683628 0.691082 0.690127 0.676926 0.689941
          0.680089 0.686284 0.713101 0.710692 0.682504 0.700835
          0.694076 0.712524 0.695336 0.701094 0.712189 0.703277
          0.71359 0.697747 0.706769 0.704369 0.696577 0.692039
          0.696358 0.723823 0.716608 0.715792 0.714319 0.701017
          0.721707 0.714727 0.713389 0.463848 0.683497 0.681388
          0.690538 0.687875 0.695684 0.679952 0.665956 0.700018
          0.697464 0.718074 0.710577 0.698129 0.715027 0.692897
          0.701171 0.699946 0.707314 0.709698 0.68941 0.683654
          0.688043 0.689908 0.681097 0.69384 0.700036 0.700668
          0.688457 0.692211 0.681152 0.704994 0.681776 0.680025
          0.459194 0.6856 0.688397 0.686772 0.671547 0.690759
          0.684002 0.703602 0.708339 0.699256 0.703625 0.706523
          0.704715 0.720433 0.700623 0.707182 0.71254 0.69313
          0.714308 0.682507 0.703603 0.695989 0.706039 0.707039
          0.707057 0.717751 0.707693 0.704768 0.702843 0.700156
          0.709068 0.711919 0.712807 0.480148 0.698665 0.700535
          0.694913 0.690718 0.695407 0.705981 0.694995 0.712899
          0.693404 0.715827 0.694492 0.691289 0.710812 0.699003
          0.691867 0.698694 0.709276 0.712127 0.703657 0.701631
          0.695596 0.691284 0.699985 0.715594 0.717056 0.705049
          0.712326 0.710029 0.702306 0.707446 0.688675 0.711927
          0.480288 0.701453 0.70479 0.701459 0.686137 0.712055
          0.695363 0.698275 0.703869 0.702085 0.708886 0.700761
          0.705509 0.703638 0.691124 0.706522 0.69989 0.706463
          0.702886 0.701286 0.702159 0.710223 0.703729 0.701683
          0.695775 0.716562 0.714759 0.698447 0.704784 0.700583
          0.725012 0.708253 0.716411 0.465099 0.685901 0.694521
          0.692581 0.671844 0.686627 0.694005 0.699012 0.697139
          0.697522 0.690119 0.703106 0.707585 0.705663 0.692187
          0.695643 0.708714 0.699216 0.707563 0.707339 0.690058
          0.696613 0.699287 0.68004 0.672657 0.697342 0.690348
          0.69048 0.686555 0.687757 0.693387 0.691439 0.699035
          0.476284 0.697687 0.689393 0.701952 0.689872 0.704965
          0.705486 0.696039 0.703258 0.69134 0.697235 0.703999
          0.704605 0.704106 0.707493 0.700809 0.695235 0.707482
          0.692387 0.703627 0.691331 0.688829 0.695534 0.684175
          0.693191 0.693041 0.68443 0.68763 0.70525 0.69207
          0.697326 0.688464 0.696692 0.480874 0.688779 0.686629
          0.696196 0.707184 0.691481 0.698889 0.693954 0.68687
          0.690391 0.700874 0.709375 0.699939 0.70138 0.707864
          0.69817 0.689926 0.707694 0.719313 0.697277 0.701796
          0.69316 0.680364 0.686692 0.687125 0.695247 0.682781
          0.689228 0.698316 0.688492 0.685466 0.690357 0.69009
          0.467221 0.680491 0.693262 0.693262 0.694158 0.681545
          0.688509 0.695926 0.691163 0.697072 0.693611 0.69742
          0.696544 0.70946 0.696951 0.682525 0.704181 0.700341
          0.692977 0.692232 0.713672 0.715577 0.708693 0.703407
          0.697621 0.711073 0.715927 0.711695 0.714351 0.71982
          0.710575 0.721172 0.719175 0.461104 0.693835 0.688598
          0.686188 0.702677 0.714799 0.69486 0.690157 0.689973
          0.699283 0.687774 0.693251 0.696459 0.709305 0.689019
          0.699137 0.690189 0.705078 0.694172 0.698934 0.69279
          0.680951 0.697715 0.687416 0.691733 0.691985 0.691834
          0.689544 0.693955 0.689544 0.688201 0.687663 0.693345
          0.476403 0.680075 0.684458 0.686749 0.693337 0.695375
          0.692059 0.697645 0.691508 0.692375 0.698362 0.71368
          0.699101 0.712118 0.71009 0.699041 0.69969 0.69867
          0.702993 0.687878 0.686669 0.69001 0.698203 0.698305
          0.699784 0.683032 0.703824 0.688646 0.696737 0.702626
          0.706939 0.692217 0.691632 0.457192 0.690197 0.676461
          0.670723 0.679081 0.684406 0.684289 0.708165 0.704547
          0.692446 0.70526 0.703843 0.700475 0.711384 0.699488
          0.708592 0.691257 0.703186 0.706808 0.6957 0.697113
          0.706645 0.706038 0.703999 0.711502 0.724227 0.695393
          0.69582 0.703798 0.700518 0.710557 0.707735 0.708626
          0.458219 0.68564 0.688676 0.684683 0.686947 0.676438
          0.676157 0.693081 0.688201 0.699604 0.698848 0.706865
          0.711742 0.696638 0.692218 0.696604 0.68948 0.706823
          0.699849 0.694898 0.69246 0.688919 0.68301 0.683935
          0.68441 0.704599 0.690256 0.684774 0.693438 0.687784
          0.701469 0.690383 0.709024 0.478853 0.699558 0.702783
          0.70708 0.701164 0.679684 0.710787 0.704683 0.699982
          0.699684 0.704523 0.709509 0.701039 0.705791 0.690623
          0.694903 0.690825 0.682501 0.707458 0.696271 0.694254
          0.690142 0.690279 0.678579 0.694931 0.689852 0.692853
          0.691694 0.691872 0.680494 0.692951 0.685403 0.681752
          0.47704 0.718955 0.699975 0.695463 0.706387 0.69566
          0.702754 0.706913 0.691081 0.692741 0.715749 0.701277
          0.702218 0.720831 0.687225 0.7032 0.704372 0.691074
          0.713563 0.69148 0.695387 0.696346 0.670133 0.696247
          0.69569 0.703738 0.676819 0.685161 0.694767 0.697513
          0.692786 0.684563 0.700667 0.482726 0.683483 0.697186
          0.686391 0.694556 0.702094 0.715661 0.692026 0.693401
          0.709236 0.695623 0.697891 0.70687 0.697349 0.710783
          0.695771 0.697492 0.697774 0.700022 0.700119 0.704907
          0.700163 0.718299 0.705023 0.693346 0.722675 0.706483
          0.697402 0.704148 0.708225 0.714779 0.705815 0.705445
          0.464782 0.711823 0.685206 0.719335 0.702341 0.693861
          0.708568 0.703361 0.688849 0.695058 0.705853 0.699938
          0.695621 0.717228 0.687435 0.709144 0.692996 0.705059
          0.712625 0.696321 0.714283 0.713053 0.707224 0.718402
          0.70838 0.70984 0.703121 0.703358 0.699624 0.706716
          0.725306 0.703423 0.719419 0.485602 0.712412 0.699266
          0.697086 0.704934 0.679083 0.697712 0.712618 0.696731
          0.696286 0.704116 0.68622 0.694232 0.716697 0.696229
          0.69324 0.698788 0.712358 0.682279 0.692837 0.702393
          0.702994 0.71497 0.711551 0.719459 0.724389 0.711788
          0.720029 0.722768 0.699604 0.711998 0.69974 0.701311
          0.463707 0.692465 0.697444 0.711633 0.708904 0.681906
          0.709372 0.704594 0.697081 0.711089 0.698336 0.697934
          0.691001 0.703597 0.706392 0.695392 0.702766 0.701926
          0.717717 0.702779 0.69061 0.692559 0.681114 0.698357
          0.688972 0.697217 0.682145 0.691969 0.699582 0.706113
          0.691875 0.68776 0.688565 0.476503 0.684784 0.697815
          0.697033 0.691764 0.692251 0.706298 0.699528 0.694289
          0.698406 0.697082 0.692017 0.701315 0.691833 0.703156
          0.693475 0.693134 0.692282 0.704276 0.700111 0.700858
          0.681768 0.684402 0.688017 0.688068 0.689602 0.696985
          0.694433 0.706405 0.707686 0.688142 0.697084 0.696187
          0.475925 0.704424 0.693052 0.694015 0.699352 0.710388
          0.69273 0.696093 0.699006 0.699846 0.693889 0.697137
          0.706143 0.721408 0.687656 0.699195 0.70383 0.699452
          0.70538 0.695056 0.694314 0.685346 0.681118 0.692388
          0.699395 0.690717 0.695102 0.686971 0.6786 0.68568
          0.693207 0.68131 0.691621 0.46973 0.701876 0.679486
          0.691729 0.69187 0.701014 0.691516 0.700396 0.701286
          0.695604 0.698632 0.687765 0.702605 0.687226 0.699395
          0.704312 0.703354 0.691359 0.71445 0.695481 0.696724
          0.68946 0.680947 0.68577 0.693964 0.685639 0.688403
          0.68992 0.682541 0.697254 0.691415 0.697506 0.684319
          0.475353 0.70102 0.696387 0.711832 0.705489 0.69677
          0.701147 0.706473 0.681067 0.711846 0.684925 0.685087
          0.712318 0.68866 0.715547 0.69715 0.699657 0.709626
          0.711324 0.701322 0.690979 0.688453 0.679118 0.697156
          0.681592 0.691577 0.68877 0.693583 0.707336 0.685219
          0.68054 0.701327 0.695019 0.477163 0.703059 0.687911
          0.696445 0.704246 0.695482 0.708497 0.687256 0.710278
          0.709642 0.710565 0.694216 0.699455 0.727581 0.688347
          0.705146 0.69668 0.689661 0.709751 0.68987 0.686713
          0.699838 0.682967 0.700361 0.692977 0.711965 0.694249
          0.702886 0.70498 0.706337 0.701986 0.684277 0.680775
          0.473888 0.693106 0.699169 0.692453 0.683137 0.68818
          0.693237 0.699491 0.681259 0.704766 0.693618 0.696146
          0.69263 0.69699 0.697893 0.702606 0.700988 0.704358
          0.691692 0.707334 0.693466 0.711767 0.712481 0.711892
          0.712673 0.70689 0.71942 0.696423 0.701201 0.712003
          0.696095 0.71307 0.703936 0.465487 0.67901 0.683416
          0.683685 0.695035 0.700391 0.701733 0.696258 0.679036
          0.690192 0.694199 0.7059 0.701916 0.706776 0.705081
          0.69952 0.693394 0.701181 0.703533 0.709383 0.709595
          0.722469 0.699569 0.695142 0.712032 0.716522 0.707593
          0.710227 0.70359 0.714313 0.719977 0.709385 0.710175
          0.477894 0.708249 0.68171 0.695362 0.711958 0.704544
          0.72015 0.683793 0.69973 0.706698 0.712663 0.685737
          0.701604 0.719194 0.69542 0.690191 0.694887 0.692573
          0.714648 0.689973 0.701601 0.707337 0.708221 0.706895
          0.702081 0.717822 0.705704 0.711573 0.700601 0.705782
          0.723251 0.72285 0.717645 0.459847 0.675081 0.681371
          0.697867 0.678113 0.686991 0.695152 0.696764 0.691283
          0.706433 0.698767 0.701029 0.703598 0.715014 0.695105
          0.690792 0.694956 0.701119 0.710891 0.693708 0.690443
          0.699386 0.694008 0.696877 0.704675 0.691351 0.692456
          0.701814 0.6876 0.683129 0.693743 0.69461 0.697333
          0.488218 0.686913 0.702634 0.676359 0.677013 0.693942
          0.693607 0.683517 0.707585 0.699747 0.697425 0.704734
          0.7051 0.69822 0.700632 0.692953 0.705441 0.699401
          0.700993 0.702886 0.701045 0.70074 0.684884 0.702101
          0.68605 0.689489 0.700222 0.692508 0.694523 0.693803
          0.686086 0.696016 0.691144 0.463937 0.671937 0.701619
          0.698133 0.686185 0.687536 0.693908 0.700532 0.701231
          0.702621 0.683416 0.701502 0.699083 0.68825 0.693877
          0.698956 0.698237 0.704862 0.701693 0.691114 0.69882
          0.705534 0.694164 0.709009 0.702478 0.696329 0.696085
          0.697918 0.700928 0.701549 0.699291 0.679679 0.695483
          0.463575 0.688976 0.698163 0.703533 0.703246 0.701115
          0.702095 0.697857 0.697068 0.702439 0.688837 0.711032
          0.697909 0.690387 0.703347 0.697186 0.702666 0.702183
          0.697428 0.712641 0.692325 0.6951 0.700503 0.681122
          0.700244 0.697877 0.682443 0.693463 0.698582 0.693429
          0.687338 0.692297 0.686609 0.458263 0.66152 0.693892
          0.679481 0.691568 0.695555 0.684217 0.68727 0.702923
          0.703148 0.693261 0.703553 0.702992 0.688699 0.694032
          0.71065 0.705922 0.695842 0.702748 0.689926 0.695548
          0.694521 0.716895 0.710108 0.69835 0.703692 0.719496
          0.712946 0.711397 0.709902 0.710988 0.712657 0.717408
          0.482517 0.706913 0.696657 0.704594 0.694374 0.701051
          0.704158 0.695476 0.700649 0.698187 0.689222 0.702941
          0.708197 0.699313 0.68702 0.702708 0.692541 0.700625
          0.702686 0.699606 0.703213 0.695114 0.695927 0.705051
          0.702382 0.691598 0.708572 0.697322 0.691473 0.702914
          0.693888 0.693577 0.677924 0.470526 0.702237 0.69466
          0.712355 0.699886 0.699755 0.697613 0.697446 0.712372
          0.704974 0.703517 0.683953 0.708413 0.702176 0.708576
          0.69847 0.690775 0.692328 0.707724 0.691232 0.697753
          0.710472 0.696341 0.694865 0.696542 0.702563 0.681037
          0.678483 0.689402 0.69704 0.712066 0.70004 0.685483
          0.469935 0.685259 0.697998 0.692671 0.699021 0.689813
          0.695164 0.696378 0.709166 0.7003 0.688877 0.699921
          0.711063 0.690015 0.69167 0.703259 0.697361 0.696452
          0.69402 0.712719 0.698396 0.700902 0.693596 0.706703
          0.681592 0.683517 0.699167 0.700407 0.697011 0.693414
          0.691865 0.687635 0.692051 0.484616 0.722853 0.703685
          0.694045 0.687903 0.70513 0.70476 0.700089 0.693103
          0.699268 0.706777 0.685323 0.703789 0.711832 0.679848
          0.698328 0.689777 0.687004 0.702082 0.705662 0.707985
          0.706311 0.703842 0.710029 0.700333 0.729359 0.706654
          0.708257 0.708215 0.716615 0.705527 0.705622 0.699663
          0.464707 0.698654 0.69941 0.695495 0.709463 0.687662
          0.705984 0.703062 0.700889 0.681747 0.699406 0.699037
          0.685124 0.72395 0.70355 0.687834 0.699134 0.7017
          0.71697 0.689863 0.689077 0.694397 0.693939 0.697707
          0.684486 0.715477 0.688052 0.691222 0.68498 0.700301
          0.702255 0.700137 0.692728 0.473839 0.699075 0.719956
          0.704967 0.686966 0.690822 0.695254 0.711071 0.700784
          0.692701 0.701547 0.691355 0.702663 0.705206 0.696519
          0.699678 0.700966 0.702492 0.711812 0.701991 0.708899
          0.699764 0.70685 0.704129 0.702829 0.730292 0.715184
          0.715766 0.70076 0.716061 0.707609 0.702738 0.721891
          0.466759 0.667253 0.696484 0.701975 0.700877 0.695886
          0.682273 0.695818 0.704477 0.703157 0.677069 0.691922
          0.674762 0.688787 0.694171 0.68967 0.700643 0.70798
          0.700558 0.68966 0.72043 0.701377 0.71577 0.725586
          0.707842 0.711477 0.710088 0.720861 0.722781 0.712068
          0.70914 0.722874 0.720125 0.465138 0.673212 0.678271
          0.676411 0.687354 0.69253 0.696549 0.689253 0.690437
          0.704788 0.700381 0.696069 0.713078 0.69188 0.700285
          0.699121 0.705136 0.701724 0.70191 0.690652 0.709275
          0.71053 0.711308 0.699605 0.707055 0.717057 0.710985
          0.70464 0.703412 0.715164 0.701538 0.715825 0.715803
          0.458016 0.686257 0.682706 0.687911 0.690082 0.692861
          0.691545 0.688375 0.693253 0.721608 0.699773 0.693027
          0.70135 0.70984 0.700083 0.711085 0.686585 0.701484
          0.718547 0.696419 0.719857 0.716315 0.723009 0.710499
          0.689501 0.707102 0.704591 0.702833 0.713367 0.713915
          0.704385 0.70817 0.707016 0.49008 0.71434 0.707651
          0.710767 0.702727 0.720687 0.691069 0.692119 0.71521
          0.690185 0.703627 0.687796 0.700697 0.715104 0.690827
          0.700128 0.683287 0.688089 0.693205 0.696961 0.705612
          0.706743 0.706973 0.70371 0.691829 0.713296 0.707057
          0.704432 0.706163 0.70777 0.712606 0.708962 0.699176
          0.453889 0.677621 0.692329 0.689606 0.687453 0.684122
          0.697156 0.681628 0.683236 0.682367 0.693679 0.682846
          0.707321 0.705303 0.714937 0.703078 0.691119 0.696934
          0.708171 0.711606 0.684069 0.697788 0.685967 0.693243
          0.703467 0.702487 0.688372 0.685017 0.692164 0.699955
          0.699489 0.693003 0.691936 0.484031 0.690272 0.700587
          0.697778 0.694722 0.708739 0.699095 0.690014 0.691242
          0.708219 0.706426 0.692782 0.712541 0.683446 0.702045
          0.691255 0.69951 0.701291 0.709491 0.711763 0.698482
          0.698568 0.694181 0.685537 0.700329 0.69539 0.707138
          0.70934 0.70217 0.688704 0.702547 0.699961 0.700409
          0.478015 0.681693 0.703718 0.690445 0.681306 0.688489
          0.686084 0.7095 0.706303 0.692028 0.67658 0.691243
          0.697966 0.708345 0.710345 0.707 0.701016 0.700823
          0.699967 0.711972 0.695709 0.687614 0.694755 0.690704
          0.693322 0.689769 0.686529 0.687865 0.69354 0.697173
          0.684185 0.689612 0.699121 0.471775 0.669374 0.694973
          0.690864 0.688848 0.689557 0.674455 0.698699 0.704433
          0.706852 0.688339 0.699739 0.712512 0.686259 0.70607
          0.714054 0.69673 0.681411 0.696248 0.706851 0.7112
          0.710217 0.707756 0.718776 0.722714 0.714181 0.720881
          0.714236 0.707979 0.702543 0.698612 0.714123 0.727741
          0.467181 0.674808 0.691118 0.684149 0.687007 0.685034
          0.678853 0.696878 0.701448 0.695201 0.693914 0.699729
          0.702285 0.685792 0.6916 0.708767 0.698474 0.690549
          0.694217 0.701409 0.69929 0.714112 0.699437 0.69867
          0.695341 0.689612 0.69501 0.701669 0.692014 0.683535
          0.687181 0.696389 0.71218 0.466681 0.682962 0.69785
          0.680463 0.685718 0.686497 0.705583 0.683104 0.680116
          0.702424 0.708602 0.692799 0.698867 0.704642 0.692355
          0.692817 0.699349 0.700247 0.702625 0.710923 0.713009
          0.695069 0.697989 0.690013 0.678564 0.701667 0.699064
          0.692187 0.684725 0.692054 0.683745 0.689291 0.698624
          0.47222 0.707404 0.683772 0.710788 0.70266 0.700385
          0.693705 0.690357 0.696433 0.698482 0.703169 0.710163
          0.70862 0.718771 0.6888 0.709042 0.698123 0.696631
          0.72212 0.693077 0.703324 0.711158 0.6888 0.708515
          0.718538 0.719499 0.720318 0.708632 0.704196 0.716274
          0.729149 0.711378 0.711505 0.480902 0.699659 0.681486
          0.715111 0.706913 0.716287 0.710635 0.688805 0.705627
          0.691648 0.703425 0.707077 0.706853 0.708263 0.689931
          0.696831 0.70629 0.692909 0.710536 0.6963 0.709405
          0.702334 0.692634 0.694975 0.719812 0.707058 0.697923
          0.709141 0.71154 0.699645 0.725697 0.70938 0.713107
          0.4654 0.678591 0.699293 0.694846 0.688071 0.678022
          0.685516 0.691173 0.699713 0.708733 0.688019 0.688441
          0.704786 0.683257 0.708005 0.697844 0.702754 0.6974
          0.695761 0.698021 0.709813 0.709305 0.686753 0.700439
          0.694749 0.693707 0.70041 0.706297 0.702571 0.710509
          0.698914 0.709385 0.700406 0.481007 0.690569 0.692166
          0.691262 0.706242 0.697912 0.686042 0.714444 0.692134
          0.696201 0.692769 0.712937 0.698953 0.702216 0.702464
          0.698621 0.694504 0.717043 0.70621 0.704362 0.702438
          0.705722 0.703687 0.701407 0.709566 0.707571 0.705552
          0.700332 0.701225 0.698328 0.697062 0.705084 0.710007
          0.477386 0.688487 0.690558 0.676841 0.683953 0.681432
          0.693803 0.705937 0.686006 0.692101 0.707334 0.689343
          0.707058 0.70313 0.709025 0.691384 0.694776 0.714246
          0.695028 0.715152 0.693024 0.68893 0.681873 0.688203
          0.689415 0.670501 0.695817 0.691234 0.68806 0.69059
          0.686391 0.694985 0.689164 0.470651 0.695376 0.701581
          0.68822 0.711135 0.697667 0.709351 0.688579 0.7009
          0.707044 0.707759 0.694741 0.696254 0.698802 0.703134
          0.697802 0.708225 0.697612 0.699264 0.713976 0.689985
          0.693978 0.685137 0.691886 0.689783 0.703572 0.695793
          0.689421 0.685363 0.687786 0.68481 0.693217 0.698342
          0.492467 0.701081 0.700167 0.690097 0.711747 0.706004
          0.707699 0.699493 0.69534 0.707968 0.699633 0.708591
          0.69401 0.697848 0.709707 0.700973 0.699011 0.702208
          0.71361 0.70316 0.701662 0.689162 0.676323 0.685322
          0.692434 0.708465 0.690295 0.684653 0.683835 0.687546
          0.697019 0.703013 0.684214 0.490757 0.707041 0.694879
          0.695801 0.708889 0.69479 0.704139 0.703256 0.700576
          0.692225 0.699056 0.702973 0.694787 0.706832 0.697294
          0.709712 0.703593 0.686036 0.70603 0.697241 0.698624
          0.668018 0.678335 0.69647 0.683593 0.713578 0.677237
          0.698733 0.691854 0.689977 0.706421 0.671489 0.694034
          0.464002 0.667928 0.706573 0.698587 0.687334 0.681164
          0.680225 0.697138 0.692973 0.699133 0.699185 0.698169
          0.717571 0.691454 0.704604 0.70046 0.700137 0.678126
          0.69409 0.705698 0.694515 0.705187 0.72696 0.710182
          0.713337 0.705095 0.720291 0.721585 0.707833 0.713524
          0.707109 0.714203 0.712374 0.461362 0.683427 0.691187
          0.69105 0.672628 0.681041 0.690049 0.710309 0.6967
          0.704253 0.683433 0.69726 0.697568 0.701766 0.700739
          0.695792 0.696857 0.709687 0.700473 0.708158 0.697308
          0.696153 0.694725 0.695963 0.705951 0.68943 0.694844
          0.694318 0.690661 0.693247 0.691296 0.695524 0.68865
          0.469947 0.680197 0.687003 0.689961 0.699715 0.691672
          0.68876 0.697087 0.688145 0.70195 0.706558 0.701979
          0.700963 0.717575 0.695523 0.707254 0.695204 0.701494
          0.722328 0.687834 0.710932 0.720948 0.716101 0.704756
          0.719505 0.736558 0.707888 0.70393 0.709418 0.711695
          0.724252 0.716051 0.703539 0.468945 0.688592 0.696222
          0.692298 0.706269 0.705764 0.678867 0.712481 0.70109
          0.703722 0.695055 0.704269 0.688128 0.6933 0.693063
          0.691729 0.702972 0.711595 0.687642 0.704559 0.69535
          0.699139 0.702177 0.704339 0.698648 0.684778 0.696524
          0.710912 0.680451 0.697809 0.678139 0.700771 0.691121
          0.493245 0.690239 0.710667 0.699397 0.698265 0.690406
          0.706358 0.692509 0.700865 0.713304 0.695151 0.700009
          0.708706 0.690942 0.706651 0.70705 0.685569 0.713768
          0.706095 0.692456 0.695841 0.68742 0.699371 0.700158
          0.701798 0.689243 0.696497 0.69635 0.676967 0.707507
          0.708297 0.690993 0.707317 0.479417 0.686564 0.694426
          0.695297 0.702285 0.70771 0.688702 0.713261 0.695911
          0.712474 0.693719 0.707739 0.709008 0.687625 0.707025
          0.690438 0.710369 0.696838 0.696947 0.709747 0.712907
          0.690462 0.688631 0.700091 0.695594 0.699921 0.705016
          0.699419 0.686656 0.705602 0.683578 0.692987 0.708721
          0.48047 0.692171 0.691732 0.705387 0.696027 0.699682
          0.689921 0.693711 0.682165 0.685147 0.691901 0.694715
          0.711196 0.709434 0.69043 0.680669 0.712053 0.707767
          0.692677 0.687838 0.696897 0.68943 0.707382 0.709389
          0.707163 0.69703 0.683468 0.699694 0.711134 0.710898
          0.696356 0.694616 0.720199 0.467577 0.697501 0.672956
          0.689339 0.69555 0.68025 0.694014 0.680234 0.70946
          0.690606 0.701259 0.696996 0.697662 0.725641 0.68675
          0.712272 0.694775 0.707413 0.713181 0.698439 0.688968
          0.698721 0.682462 0.685937 0.691048 0.701954 0.693163
          0.68273 0.68465 0.695615 0.686654 0.688902 0.698258
          0.48359 0.717724 0.699697 0.713331 0.706391 0.704545
          0.694758 0.703158 0.708794 0.696249 0.705803 0.688585
          0.703859 0.715391 0.70649 0.686733 0.689245 0.710606
          0.712356 0.71124 0.683883 0.683231 0.687017 0.698012
          0.697842 0.687576 0.683947 0.696207 0.689338 0.682322
          0.69913 0.699078 0.686541 0.483707 0.678076 0.707227
          0.71425 0.676508 0.688382 0.690738 0.699175 0.693973
          0.697916 0.689506 0.708061 0.703265 0.700414 0.699086
          0.716238 0.700885 0.684134 0.70563 0.70368 0.697151
          0.704258 0.699323 0.699035 0.712552 0.681191 0.700081
          0.697891 0.700638 0.701002 0.696242 0.707144 0.70637
          0.479475 0.690766 0.708995 0.694779 0.690161 0.705217
          0.701997 0.692517 0.698693 0.70023 0.687771 0.71005
          0.693872 0.699058 0.703871 0.689102 0.715638 0.710605
          0.697792 0.687554 0.702764 0.724011 0.698602 0.713781
          0.715175 0.703117 0.711866 0.708743 0.718899 0.713245
          0.696132 0.718034 0.718334 0.462336 0.670382 0.687346
          0.699598 0.68595 0.68756 0.686409 0.689527 0.700419
          0.697891 0.69619 0.700375 0.717356 0.690653 0.702955
          0.698881 0.710983 0.694562 0.683122 0.708016 0.707745
          0.711884 0.702774 0.725778 0.71673 0.700684 0.71049
          0.708873 0.695267 0.702127 0.711693 0.715673 0.714007
          0.462817 0.676324 0.692306 0.681338 0.700622 0.694732
          0.694807 0.698297 0.698198 0.681098 0.685032 0.702926
          0.70337 0.700597 0.715871 0.700226 0.701049 0.704841
          0.710244 0.698236 0.706289 0.731298 0.708684 0.711906
          0.716009 0.700395 0.707402 0.703096 0.723157 0.722086
          0.70955 0.711232 0.717202 0.478507 0.693533 0.697363
          0.694751 0.712695 0.702516 0.707459 0.696631 0.694656
          0.71211 0.696771 0.701834 0.709762 0.700594 0.705759
          0.689446 0.696695 0.715358 0.69912 0.698068 0.70157
          0.700594 0.700718 0.699412 0.712698 0.711212 0.700266
          0.718385 0.704349 0.707465 0.696975 0.712643 0.711473
          0.480335 0.674595 0.698238 0.690864 0.708765 0.684956
          0.707425 0.699583 0.707149 0.690415 0.690198 0.712308
          0.705314 0.700396 0.706959 0.698313 0.696668 0.708056
          0.70528 0.693693 0.708944 0.718445 0.708076 0.699979
          0.703526 0.709084 0.708348 0.712123 0.706151 0.70386
          0.6889 0.702949 0.706559 0.476031 0.682615 0.679076
          0.679576 0.702673 0.677929 0.699056 0.702953 0.694024
          0.712222 0.700095 0.703011 0.691055 0.71089 0.697233
          0.715195 0.684491 0.715421 0.701713 0.703896 0.715075
          0.719806 0.706228 0.698885 0.715689 0.701761 0.688757
          0.699327 0.704817 0.713303 0.713446 0.696947 0.706932
          0.486511 0.688367 0.698365 0.702197 0.709857 0.700142
          0.685506 0.716759 0.699908 0.704385 0.691577 0.709405
          0.686845 0.712135 0.69724 0.702563 0.695939 0.701524
          0.701272 0.704188 0.719945 0.707105 0.715644 0.698287
          0.726362 0.695938 0.721677 0.72116 0.707953 0.712668
          0.690518 0.714154 0.712824 0.466045 0.671988 0.6755
          0.698792 0.682492 0.702281 0.689888 0.68127 0.694563
          0.704162 0.693988 0.702437 0.698741 0.708362 0.701752
          0.694562 0.709465 0.697667 0.708549 0.698065 0.710886
          0.715423 0.712167 0.710095 0.711339 0.701939 0.71144
          0.717361 0.702315 0.708288 0.701361 0.707908 0.708605
          0.469159 0.71765 0.692567 0.709309 0.69712 0.696813
          0.707982 0.687634 0.669163 0.704658 0.695247 0.712426
          0.702208 0.705006 0.692348 0.718161 0.696091 0.69395
          0.697535 0.701146 0.688626 0.7006 0.716261 0.705074
          0.719041 0.721654 0.69006 0.705179 0.699426 0.693624
          0.714128 0.722906 0.7207 0.473664 0.672608 0.712996
          0.695882 0.685663 0.68948 0.687493 0.699086 0.713162
          0.698079 0.690695 0.699448 0.69583 0.681643 0.703253
          0.700004 0.703583 0.693426 0.696134 0.707252 0.692542
          0.700295 0.709367 0.699368 0.705786 0.683778 0.721083
          0.698784 0.700252 0.721256 0.695153 0.699762 0.707287
          0.484173 0.677421 0.704168 0.694805 0.697167 0.706446
          0.685864 0.704391 0.687131 0.69262 0.696839 0.7063
          0.695178 0.704055 0.707759 0.687084 0.695019 0.696042
          0.694359 0.713681 0.704151 0.709852 0.69477 0.70922
          0.695001 0.686163 0.687995 0.697632 0.693998 0.694969
          0.687059 0.695541 0.69024 0.482025 0.717637 0.705163
          0.696358 0.69676 0.700767 0.699574 0.693977 0.694774
          0.690526 0.701549 0.705192 0.700552 0.702632 0.708768
          0.688484 0.699643 0.688636 0.711979 0.699279 0.686455
          0.701202 0.693949 0.681939 0.689127 0.706028 0.696515
          0.700089 0.692604 0.697461 0.692531 0.697899 0.695151
          0.463715 0.710194 0.692492 0.709493 0.69969 0.680915
          0.703268 0.714335 0.702974 0.692297 0.705538 0.709853
          0.713926 0.711718 0.693854 0.704373 0.715911 0.691433
          0.713862 0.695511 0.704051 0.692599 0.706761 0.683828