<?xml version="1.0"?>
<VTKFile type="PolyData" version="0.1" byte_order="LittleEndian" header_type="UInt32" compressor="vtkZLibDataCompressor">
  <PolyData>
    <Piece NumberOfPoints="7920" NumberOfVerts="0" NumberOfLines="0" NumberOfStrips="0" NumberOfPolys="0">
      <PointData Scalars="Calcium Concentration">
        <DataArray type="Float32" Name="Calcium Concentration" format="ascii" RangeMin="0.4262300133705139" RangeMax="0.7385159730911255">
          0.44777 0.705213 0.699364 0.690489 0.703296 0.69506
          0.69163 0.70067 0.694236 0.702839 0.688995 0.706743
          0.703051 0.706743 0.685207 0.695641 0.693474 0.711741
          0.715824 0.697158 0.701334 0.674224 0.696267 0.694139
          0.683403 0.695052 0.688908 0.699718 0.692766 0.677468
          0.702553 0.697622 0.689754 0.459245 0.694356 0.697625
          0.690909 0.705741 0.704052 0.699035 0.691774 0.724474
          0.699037 0.700311 0.713823 0.69617 0.701774 0.690786
          0.699376 0.698853 0.702339 0.706425 0.707008 0.689607
          0.692297 0.689466 0.679635 0.671919 0.704146 0.700198
          0.688412 0.685877 0.70526 0.700105 0.682394 0.691902
          0.450828 0.680872 0.686386 0.678177 0.684188 0.678735
          0.696999 0.696983 0.691872 0.70896 0.688061 0.710515
          0.719582 0.701383 0.709279 0.703584 0.71471 0.718132
          0.721179 0.705213 0.71512 0.714145 0.71199 0.712126
          0.707302 0.709879 0.703541 0.709712 0.708001 0.7033
          0.703585 0.709145 0.707285 0.447867 0.693255 0.708228
          0.686626 0.69641 0.695302 0.709225 0.691505 0.711214
          0.70252 0.690751 0.69388 0.688774 0.700585 0.6912
          0.698284 0.696301 0.697583 0.709301 0.701974 0.705904
          0.691238 0.69176 0.699273 0.688377 0.70456 0.707119
          0.696942 0.702873 0.70232 0.697974 0.699037 0.69748
          0.442196 0.675568 0.690139 0.698331 0.684547 0.684584
          0.692628 0.684735 0.706582 0.698179 0.700181 0.683832
          0.704449 0.702676 0.688352 0.706117 0.709002 0.708593
          0.710231 0.687141 0.689769 0.695414 0.696935 0.680656
          0.686765 0.6899 0.691312 0.691502 0.695297 0.695822
          0.685377 0.691983 0.698521 0.468051 0.700346 0.691935
          0.691707 0.686982 0.707966 0.70754 0.700293 0.695116
          0.691553 0.688772 0.701213 0.702581 0.702408 0.696644
          0.699456 0.704357 0.692028 0.71313 0.694241 0.696778
          0.709202 0.702573 0.693819 0.707894 0.724456 0.714997
          0.702563 0.702851 0.707789 0.709513 0.704982 0.704431
          0.452616 0.686226 0.692158 0.689069 0.676787 0.697344
          0.682186 0.684928 0.708216 0.70957 0.682841 0.702939
          0.695381 0.70132 0.69689 0.699122 0.709213 0.707792
          0.710729 0.695343 0.709713 0.704772 0.698217 0.68917
          0.696114 0.722127 0.720444 0.715287 0.72028 0.705261
          0.719858 0.714037 0.710521 0.443313 0.686119 0.683643
          0.689547 0.684561 0.699463 0.688289 0.668715 0.693753
          0.699235 0.722017 0.713701 0.697732 0.708442 0.687986
          0.701471 0.69969 0.712279 0.71274 0.684083 0.684139
          0.688912 0.686883 0.679204 0.693298 0.695824 0.700473
          0.685177 0.693418 0.68341 0.699173 0.679844 0.68222
          0.43816 0.682051 0.682828 0.685351 0.67484 0.681273
          0.684361 0.706061 0.702919 0.692784 0.70377 0.703011
          0.707386 0.711968 0.694376 0.706002 0.713836 0.696763
          0.711589 0.682709 0.701955 0.701789 0.70261 0.709865
          0.7038 0.717574 0.700168 0.709549 0.705345 0.706516
          0.712143 0.706677 0.709966 0.450837 0.700711 0.696499
          0.694454 0.689732 0.699069 0.710973 0.696458 0.710123
          0.699005 0.717633 0.68971 0.69258 0.703645 0.703284
          0.69089 0.700584 0.712274 0.709055 0.699922 0.699754
          0.69723 0.688381 0.702135 0.71735 0.718933 0.701327
          0.711521 0.708909 0.700615 0.703997 0.691578 0.709001
          0.455024 0.697682 0.703233 0.701643 0.680395 0.711279
          0.697087 0.702251 0.706415 0.700182 0.703493 0.707155
          0.703926 0.700179 0.694424 0.696781 0.697675 0.703069
          0.703212 0.701619 0.702474 0.717443 0.704174 0.708221
          0.701693 0.71194 0.709934 0.698419 0.709308 0.698575
          0.721221 0.709059 0.722279 0.440508 0.682261 0.693856
          0.693933 0.673059 0.689502 0.693434 0.698957 0.700986
          0.69941 0.695344 0.703343 0.706388 0.695916 0.693588
          0.695232 0.707335 0.699123 0.702084 0.70613 0.684846
          0.698316 0.697148 0.677865 0.676259 0.701495 0.691242
          0.695783 0.683129 0.690802 0.692665 0.694899 0.700853
          0.452693 0.695269 0.690408 0.700013 0.688848 0.707616
          0.699839 0.693546 0.701356 0.696696 0.699044 0.700225
          0.70504 0.698104 0.712407 0.696858 0.696994 0.706361
          0.693673 0.705918 0.686202 0.685396 0.695077 0.682618
          0.692479 0.696678 0.686862 0.686309 0.705788 0.691226
          0.697058 0.691435 0.696465 0.457857 0.685709 0.685404
          0.699936 0.705994 0.690685 0.703108 0.695394 0.687543
          0.691476 0.700968 0.706127 0.697877 0.697595 0.704562
          0.698076 0.693003 0.706241 0.721456 0.69901 0.699912
          0.696734 0.678427 0.685147 0.685657 0.701145 0.680982
          0.69043 0.698268 0.689274 0.690141 0.685054 0.691064
          0.438672 0.676305 0.692637 0.690479 0.689516 0.683884
          0.685193 0.691208 0.688073 0.701075 0.697212 0.707764
          0.692069 0.700017 0.700961 0.685013 0.702549 0.696126
          0.692008 0.697774 0.717508 0.71316 0.711714 0.697337
          0.699626 0.716613 0.713489 0.714988 0.711655 0.721741
          0.714025 0.723246 0.719022 0.44249 0.693151 0.687573
          0.68483 0.705213 0.71196 0.696239 0.693228 0.684515
          0.69922 0.69069 0.694543 0.693992 0.702111 0.69194
          0.701025 0.688996 0.707602 0.693723 0.698781 0.694373
          0.683351 0.697369 0.685892 0.695167 0.693321 0.690845
          0.694989 0.69144 0.688492 0.691278 0.696875 0.690427
          0.452924 0.680249 0.687055 0.689683 0.690368 0.699034
          0.687061 0.703818 0.690673 0.687496 0.698084 0.713081
          0.701121 0.703027 0.715288 0.701085 0.705888 0.700679
          0.703374 0.686624 0.689551 0.693139 0.694032 0.70017
          0.697518 0.683577 0.702156 0.691601 0.698539 0.700803
          0.709833 0.693497 0.688647 0.42952 0.689138 0.680382
          0.674027 0.683348 0.6828 0.68478 0.709087 0.707044
          0.697829 0.705666 0.706231 0.696378 0.702101 0.701564
          0.707366 0.692356 0.705583 0.70116 0.699439 0.698966
          0.703314 0.706581 0.706456 0.712712 0.724776 0.688771
          0.699636 0.702062 0.704655 0.711494 0.704323 0.713885
          0.43293 0.69045 0.691641 0.685297 0.689673 0.676329
          0.673528 0.696577 0.69133 0.699405 0.69028 0.701155
          0.706626 0.690075 0.687397 0.698387 0.688428 0.707397
          0.704152 0.690271 0.695768 0.690049 0.681373 0.684157
          0.682868 0.705303 0.693275 0.685283 0.696968 0.692796
          0.703771 0.683161 0.703565 0.453452 0.693265 0.694693
          0.701703 0.701193 0.685986 0.7078 0.703059 0.704078
          0.69967 0.702979 0.712653 0.696885 0.696116 0.696109
          0.698654 0.696049 0.689056 0.710344 0.697986 0.693656
          0.688917 0.685023 0.680465 0.694496 0.691133 0.696271
          0.688849 0.699256 0.680499 0.687935 0.685913 0.679731
          0.451497 0.721044 0.700031 0.694777 0.700812 0.697367
          0.700818 0.705651 0.69012 0.698148 0.709131 0.705753
          0.704467 0.714872 0.685855 0.705597 0.702499 0.68609
          0.712688 0.688375 0.698986 0.696107 0.675351 0.693815
          0.701539 0.706324 0.682728 0.687829 0.696274 0.697277
          0.696165 0.685107 0.704865 0.457786 0.683855 0.694803
          0.693447 0.693987 0.698066 0.721555 0.695512 0.698842
          0.710261 0.690839 0.697549 0.707474 0.695054 0.711989
          0.69765 0.701531 0.699645 0.701921 0.695972 0.705387
          0.698029 0.718017 0.705674 0.696988 0.723101 0.713403
          0.692788 0.708819 0.713188 0.722713 0.706484 0.70173
          0.438012 0.708849 0.683582 0.719316 0.694143 0.69542
          0.711726 0.70598 0.687486 0.696625 0.702357 0.697835
          0.70138 0.708701 0.690332 0.701589 0.694376 0.707548
          0.711942 0.700118 0.720038 0.712212 0.705791 0.72235
          0.707227 0.711002 0.703423 0.697516 0.697354 0.709696
          0.723525 0.701707 0.719191 0.459038 0.71387 0.703496
          0.703066 0.705406 0.685287 0.701587 0.709832 0.696199
          0.695891 0.700357 0.686713 0.695808 0.708158 0.697932
          0.69058 0.696349 0.707335 0.69092 0.687854 0.700535
          0.705456 0.718692 0.712649 0.713188 0.725098 0.712988
          0.717815 0.722954 0.695379 0.715367 0.697693 0.701424
          0.440964 0.689545 0.690837 0.710824 0.711795 0.679865
          0.712467 0.700672 0.70092 0.712173 0.698165 0.69783
          0.687995 0.699698 0.705028 0.701167 0.702875 0.700229
          0.71727 0.700932 0.691678 0.687599 0.685372 0.693925
          0.68369 0.690973 0.688689 0.689045 0.701814 0.704697
          0.690847 0.684395 0.685365 0.44875 0.683143 0.693481
          0.694618 0.693189 0.699997 0.702922 0.703712 0.689383
          0.704637 0.698937 0.693168 0.699451 0.693013 0.7036
          0.69279 0.696616 0.693659 0.698369 0.702164 0.696728
          0.679723 0.680547 0.68441 0.682671 0.686512 0.698921
          0.697925 0.704833 0.704203 0.689123 0.694733 0.695756
          0.454631 0.70071 0.696447 0.693429 0.701348 0.705242
          0.696262 0.693542 0.700722 0.699965 0.695398 0.692449
          0.702382 0.713387 0.688451 0.701283 0.702087 0.703578
          0.705829 0.700825 0.696021 0.685903 0.6791 0.693645
          0.701474 0.692033 0.690271 0.687953 0.686774 0.684105
          0.696479 0.677142 0.688701 0.447774 0.695824 0.681516
          0.695193 0.69285 0.701203 0.692855 0.700488 0.696959
          0.697188 0.700672 0.682119 0.698597 0.682013 0.695148
          0.704867 0.712052 0.692448 0.715866 0.697208 0.696208
          0.692551 0.680953 0.686307 0.695422 0.68844 0.691299
          0.690819 0.6849 0.690759 0.692788 0.699349 0.68041
          0.455891 0.701217 0.693905 0.708818 0.697513 0.698576
          0.699013 0.70724 0.679136 0.710981 0.683439 0.683555
          0.707448 0.681329 0.713037 0.69678 0.695511 0.710659
          0.712494 0.701617 0.690124 0.689124 0.681253 0.703202
          0.679899 0.692927 0.693661 0.688738 0.705924 0.687934
          0.678605 0.70162 0.702859 0.455961 0.695012 0.682536
          0.702431 0.704761 0.697212 0.707179 0.690168 0.713489
          0.710568 0.705467 0.69557 0.695045 0.724136 0.691383
          0.705703 0.694078 0.692587 0.710927 0.692873 0.685283
          0.695692 0.681128 0.70047 0.694355 0.711071 0.695658
          0.709561 0.703393 0.702881 0.704498 0.68243 0.676652
          0.445886 0.68816 0.699156 0.687336 0.677141 0.688986
          0.696857 0.701563 0.681347 0.701191 0.690721 0.699861
          0.689909 0.694517 0.703963 0.700843 0.698914 0.704677
          0.688723 0.708063 0.692729 0.713127 0.713859 0.719324
          0.712156 0.705599 0.71304 0.696302 0.707784 0.708884
          0.699837 0.712085 0.700209 0.438724 0.683075 0.685938
          0.692518 0.69444 0.696305 0.706192 0.695919 0.679186
          0.691308 0.693444 0.69805 0.697981 0.699095 0.69964
          0.701659 0.696751 0.70137 0.703833 0.704237 0.708519
          0.720642 0.70797 0.698806 0.711435 0.720476 0.706359
          0.715426 0.705984 0.715785 0.71776 0.704074 0.709274
          0.450488 0.702673 0.677645 0.694833 0.709078 0.702901
          0.724443 0.68848 0.699762 0.703161 0.714076 0.68859
          0.706049 0.715159 0.688601 0.689338 0.692338 0.696163
          0.712011 0.688934 0.701897 0.705873 0.713277 0.711795
          0.706475 0.722042 0.706332 0.70862 0.702728 0.708558
          0.721549 0.71877 0.717415 0.432418 0.674449 0.683663
          0.695578 0.673564 0.685718 0.696689 0.692272 0.69464
          0.704904 0.696681 0.705264 0.701917 0.70616 0.692304
          0.692068 0.698534 0.70333 0.711999 0.695111 0.69576
          0.697107 0.691357 0.696433 0.705331 0.692528 0.697963
          0.697932 0.688325 0.685742 0.693114 0.694051 0.696751
          0.464004 0.687604 0.702954 0.677768 0.678652 0.693321
          0.692843 0.68587 0.702152 0.699741 0.699135 0.70301
          0.703459 0.693863 0.700746 0.696538 0.706011 0.70145
          0.699092 0.703151 0.696929 0.702913 0.689648 0.700123
          0.684662 0.684261 0.706594 0.691699 0.698035 0.693172
          0.688984 0.69762 0.692345 0.437016 0.675347 0.693539
          0.704319 0.686931 0.686131 0.697484 0.706745 0.701261
          0.69875 0.679493 0.701573 0.698981 0.689007 0.695432
          0.698826 0.697913 0.703439 0.699714 0.69441 0.698592
          0.701925 0.697733 0.714216 0.702714 0.693761 0.691523
          0.699719 0.707481 0.701813 0.701179 0.681727 0.692989
          0.438865 0.687658 0.697832 0.712367 0.699152 0.703379
          0.700246 0.697682 0.696945 0.706876 0.68766 0.707894
          0.699831 0.683191 0.697401 0.701297 0.702736 0.702159
          0.695135 0.705553 0.693659 0.69873 0.702697 0.681052
          0.694073 0.699894 0.682714 0.69061 0.700632 0.694943
          0.683892 0.69558 0.685189 0.439188 0.66598 0.691138
          0.683815 0.694747 0.693128 0.682334 0.69224 0.703176
          0.701312 0.692498 0.705946 0.699002 0.683378 0.693177
          0.7097 0.702174 0.699517 0.703007 0.693039 0.697189
          0.691809 0.714445 0.711027 0.698271 0.704093 0.723542
          0.710085 0.721007 0.71107 0.712262 0.703505 0.721365
          0.453337 0.707593 0.69646 0.700857 0.695997 0.701274
          0.704675 0.692957 0.700687 0.70018 0.68809 0.703301
          0.709087 0.692925 0.68781 0.702818 0.68953 0.70501
          0.707036 0.701614 0.705652 0.700961 0.691291 0.703455
          0.700663 0.690881 0.711498 0.694955 0.684493 0.707515
          0.693232 0.693011 0.68188 0.448531 0.700353 0.691904
          0.711749 0.69985 0.695586 0.697276 0.699318 0.709499
          0.703382 0.705875 0.686391 0.705013 0.691924 0.703235
          0.698272 0.693868 0.695696 0.702114 0.688141 0.699681
          0.707357 0.694009 0.692296 0.696332 0.698656 0.676833
          0.684619 0.690354 0.699004 0.715538 0.693574 0.681997
          0.443447 0.683672 0.693581 0.689858 0.69878 0.695229
          0.696687 0.696089 0.707839 0.700372 0.689863 0.706226
          0.705888 0.68663 0.69091 0.693026 0.699134 0.696
          0.691143 0.709839 0.694034 0.696702 0.690806 0.703232
          0.683877 0.686023 0.707487 0.700221 0.698824 0.690467
          0.688799 0.68418 0.693186 0.459964 0.712603 0.704107
          0.697556 0.688629 0.7055 0.707073 0.70215 0.68167
          0.695137 0.709676 0.685994 0.708231 0.709039 0.68197
          0.702202 0.692851 0.687724 0.70029 0.697891 0.704361
          0.704837 0.701988 0.706902 0.696214 0.730401 0.709544
          0.700659 0.711233 0.709989 0.699848 0.70398 0.699503
          0.440018 0.698493 0.701578 0.697013 0.708254 0.690655
          0.708815 0.701271 0.703133 0.680051 0.701472 0.696876
          0.689923 0.720376 0.701972 0.68442 0.6969 0.699736
          0.720875 0.690965 0.681853 0.695936 0.695408 0.693288
          0.680657 0.713192 0.690914 0.692436 0.681031 0.706698
          0.700117 0.699897 0.691909 0.448012 0.696813 0.726414
          0.7075 0.689663 0.696138 0.694694 0.716484 0.700692
          0.698334 0.703838 0.694681 0.709338 0.699299 0.696395
          0.697596 0.703124 0.707038 0.712967 0.702145 0.705765
          0.703787 0.703491 0.702448 0.70746 0.729262 0.723016
          0.707008 0.707126 0.717686 0.706098 0.702961 0.720006
          0.444317 0.667983 0.695901 0.702416 0.698731 0.697667
          0.688711 0.697518 0.698518 0.701344 0.678943 0.691073
          0.670233 0.691737 0.70186 0.692994 0.70066 0.709082
          0.700543 0.688597 0.718417 0.705637 0.719569 0.72185
          0.710855 0.708456 0.70899 0.725032 0.722907 0.711266
          0.712153 0.721132 0.722185 0.440355 0.672616 0.684332
          0.673963 0.686161 0.689651 0.702653 0.694316 0.687594
          0.701065 0.69851 0.69759 0.708111 0.688874 0.698063
          0.701113 0.707652 0.699877 0.704064 0.687588 0.710208
          0.705223 0.71047 0.697491 0.703789 0.718926 0.707972
          0.702992 0.705979 0.716616 0.705933 0.717567 0.717455
          0.436877 0.682673 0.682917 0.684612 0.68911 0.69425
          0.692887 0.6891 0.688499 0.723775 0.701842 0.694439
          0.701565 0.702346 0.704252 0.710078 0.691374 0.710027
          0.716315 0.696089 0.724059 0.716137 0.719159 0.711691
          0.690522 0.712063 0.698767 0.705454 0.714875 0.711255
          0.702764 0.707028 0.70985 0.465883 0.707426 0.704149
          0.709911 0.702918 0.72066 0.692387 0.693507 0.71873
          0.691275 0.704167 0.6864 0.700676 0.712705 0.689998
          0.702163 0.68978 0.695222 0.698771 0.688278 0.706191
          0.70519 0.701541 0.710647 0.693089 0.714856 0.707657
          0.702945 0.711153 0.704152 0.713934 0.705703 0.696957
          0.42623 0.67335 0.693637 0.686495 0.690201 0.684677
          0.698934 0.683992 0.679363 0.680586 0.695122 0.685368
          0.705792 0.695423 0.710435 0.703418 0.69029 0.696465
          0.706837 0.71094 0.684662 0.697538 0.686812 0.688222
          0.693384 0.70058 0.691324 0.687629 0.695494 0.699972
          0.695307 0.698525 0.693249 0.465676 0.685268 0.706939
          0.695422 0.696134 0.701318 0.701119 0.688844 0.690353
          0.713243 0.702927 0.696052 0.709713 0.679545 0.706523
          0.696723 0.697577 0.701497 0.710569 0.721414 0.698538
          0.698299 0.695819 0.688268 0.700426 0.69278 0.711974
          0.710385 0.700339 0.685489 0.702683 0.697849 0.698403
          0.450417 0.681697 0.706238 0.693758 0.67906 0.689474
          0.686682 0.708326 0.700687 0.693161 0.676313 0.690416
          0.695606 0.707178 0.713223 0.703665 0.698876 0.703054
          0.697896 0.710903 0.697376 0.690544 0.690147 0.691799
          0.694928 0.690887 0.687262 0.686496 0.692961 0.698829
          0.682432 0.690761 0.696989 0.445782 0.668345 0.690122
          0.690028 0.691883 0.688388 0.680138 0.702545 0.694385
          0.707633 0.687214 0.703787 0.703279 0.686791 0.710982
          0.711414 0.69411 0.683755 0.697892 0.703367 0.706126
          0.713358 0.710812 0.720615 0.723173 0.717756 0.723118
          0.713476 0.70875 0.704808 0.702585 0.715586 0.726343
          0.449028 0.676339 0.690127 0.68682 0.685569 0.681465
          0.678645 0.696479 0.703531 0.69042 0.693352 0.704039
          0.708808 0.68211 0.690721 0.707553 0.693831 0.697787
          0.693554 0.701594 0.699207 0.71358 0.701254 0.698333
          0.694828 0.68634 0.694439 0.697579 0.693342 0.688236
          0.687945 0.700238 0.707166 0.446582 0.681334 0.693382
          0.676391 0.684158 0.685109 0.704076 0.685579 0.680076
          0.696414 0.707453 0.689605 0.696546 0.692726 0.689414
          0.694343 0.692945 0.700163 0.707081 0.712033 0.710331
          0.694624 0.697969 0.690951 0.676382 0.699903 0.700939
          0.693443 0.687264 0.693457 0.688203 0.681888 0.698549
          0.448435 0.708148 0.686241 0.71397 0.702985 0.691939
          0.69709 0.695751 0.690023 0.704469 0.701621 0.711172
          0.709423 0.714641 0.687745 0.703685 0.695704 0.698443
          0.722385 0.694438 0.701718 0.714405 0.69187 0.709279
          0.718456 0.727966 0.72016 0.70965 0.696258 0.711815
          0.730193 0.71039 0.714818 0.451694 0.695421 0.685703
          0.710555 0.703361 0.715982 0.71191 0.685641 0.70851
          0.694798 0.705912 0.703608 0.705602 0.700842 0.691037
          0.698647 0.704789 0.694395 0.709506 0.700095 0.699769
          0.70239 0.700292 0.700826 0.723968 0.705763 0.697872
          0.705753 0.708446 0.699398 0.724297 0.710444 0.71225
          0.442746 0.674346 0.701257 0.694412 0.688779 0.67793
          0.686237 0.694311 0.697224 0.707457 0.686836 0.691459
          0.707396 0.677247 0.706889 0.699761 0.701161 0.699158
          0.699649 0.699847 0.708769 0.701726 0.687709 0.700545
          0.700572 0.695074 0.696163 0.706932 0.700621 0.711563
          0.696714 0.708363 0.698329 0.462178 0.687399 0.69761
          0.69038 0.70709 0.693751 0.686786 0.714079 0.691365
          0.697944 0.690021 0.714328 0.700914 0.700382 0.700532
          0.698526 0.70004 0.716691 0.706906 0.704782 0.70062
          0.704365 0.704186 0.703621 0.710701 0.712654 0.705944
          0.700449 0.705344 0.70045 0.690561 0.707603 0.711078
          0.449932 0.683139 0.687556 0.676562 0.682514 0.679397
          0.693355 0.702515 0.690781 0.6912 0.703828 0.686064
          0.708036 0.699287 0.712166 0.686217 0.694168 0.715764
          0.698683 0.71449 0.692278 0.685642 0.684257 0.691231
          0.696694 0.673777 0.695276 0.688088 0.693229 0.691834
          0.686912 0.694548 0.690106 0.446657 0.690736 0.704047
          0.68702 0.710222 0.697476 0.708134 0.695871 0.703208
          0.703546 0.708529 0.696341 0.691572 0.69244 0.697162
          0.695458 0.704682 0.701575 0.701205 0.709279 0.688809
          0.69977 0.685597 0.688882 0.688623 0.701861 0.695167
          0.688101 0.690125 0.686372 0.687453 0.692503 0.69391
          0.464397 0.694722 0.695988 0.693234 0.710971 0.706579
          0.710689 0.701782 0.699006 0.713088 0.699706 0.711664
          0.695482 0.691494 0.710769 0.701004 0.694477 0.700326
          0.710831 0.703473 0.701674 0.688079 0.680021 0.690252
          0.687621 0.705317 0.697741 0.685163 0.684294 0.684071
          0.694515 0.697079 0.6846 0.471078 0.705685 0.69438
          0.695245 0.707654 0.700477 0.706714 0.705777 0.69022
          0.691347 0.70116 0.696752 0.691937 0.697206 0.694931
          0.70873 0.70375 0.692935 0.706901 0.694804 0.700425
          0.668855 0.686607 0.695953 0.679897 0.715043 0.681253
          0.700525 0.695203 0.686773 0.704989 0.674869 0.693199
          0.43713 0.664717 0.705114 0.700602 0.688045 0.681264
          0.682418 0.699041 0.694387 0.7012 0.698996 0.702233
          0.713138 0.692658 0.713599 0.700591 0.702011 0.679965
          0.6977 0.708378 0.691856 0.703831 0.731902 0.711308
          0.712671 0.699376 0.716136 0.719714 0.706556 0.710713
          0.707887 0.719755 0.711592 0.436277 0.677442 0.692461
          0.690011 0.67594 0.683294 0.684809 0.707209 0.694235
          0.700469 0.679466 0.696976 0.692913 0.701894 0.705042
          0.691187 0.698628 0.712839 0.700389 0.700582 0.692771
          0.702024 0.694157 0.691193 0.704362 0.690451 0.689828
          0.693768 0.691878 0.6906 0.696671 0.690959 0.685458
          0.445793 0.682464 0.687727 0.688962 0.703869 0.695121
          0.693919 0.698901 0.688908 0.701982 0.707383 0.699927
          0.701046 0.704705 0.69494 0.705953 0.692461 0.699725
          0.722409 0.686312 0.707946 0.714822 0.713685 0.705151
          0.723509 0.738516 0.70656 0.702136 0.706099 0.712763
          0.726763 0.715668 0.710174 0.45087 0.685449 0.693698
          0.685046 0.706822 0.704386 0.680764 0.711727 0.705405
          0.70199 0.696655 0.711153 0.688972 0.692479 0.690477
          0.686852 0.700997 0.710578 0.686439 0.703029 0.699243
          0.703253 0.700292 0.702697 0.696454 0.687516 0.700192
          0.710032 0.688825 0.701821 0.67791 0.694408 0.690194
          0.467358 0.693488 0.70945 0.695215 0.702279 0.693736
          0.706904 0.695802 0.70709 0.708416 0.690539 0.701936
          0.707488 0.692102 0.705371 0.709993 0.683901 0.713132
          0.710929 0.689646 0.697448 0.692312 0.699262 0.702023
          0.703971 0.681672 0.700362 0.700236 0.68093 0.710248
          0.707008 0.688112 0.708153 0.458531 0.689573 0.691859
          0.698968 0.700417 0.706275 0.685416 0.710384 0.695562
          0.71168 0.695253 0.712903 0.709921 0.682096 0.705782
          0.691547 0.717696 0.698715 0.696427 0.708772 0.710087
          0.687281 0.693736 0.700191 0.695075 0.697814 0.705746
          0.703628 0.691701 0.706152 0.684109 0.692366 0.705473
          0.453319 0.689218 0.692894 0.703792 0.695642 0.697621
          0.690955 0.693072 0.682243 0.681573 0.688819 0.687961
          0.710198 0.701953 0.687626 0.686902 0.71111 0.706411
          0.698202 0.688726 0.698527 0.694732 0.699671 0.714541
          0.70792 0.690698 0.688138 0.697591 0.714598 0.70786
          0.702173 0.696202 0.722146 0.447396 0.688914 0.67644
          0.686001 0.699264 0.682513 0.695469 0.682331 0.710459
          0.691681 0.697311 0.698737 0.697454 0.722161 0.687525
          0.7115 0.69423 0.708177 0.706235 0.696034 0.687727
          0.69654 0.678572 0.690803 0.690042 0.69396 0.692384
          0.687258 0.689494 0.691015 0.687411 0.687635 0.69178
          0.460966 0.715313 0.695554 0.708436 0.706973 0.6944
          0.698258 0.699328 0.70971 0.697997 0.704254 0.687396
          0.706361 0.713009 0.705026 0.681164 0.690208 0.711763
          0.709514 0.705846 0.682085 0.681419 0.687956 0.702019
          0.697549 0.688542 0.686701 0.695803 0.68603 0.678571
          0.699064 0.696875 0.691431 0.461052 0.675814 0.707908
          0.709543 0.678354 0.691431 0.696134 0.699145 0.695249
          0.701985 0.688472 0.70916 0.703595 0.700531 0.699079
          0.718151 0.700897 0.688579 0.704175 0.703855 0.696925
          0.706707 0.699342 0.694759 0.709847 0.679397 0.695899
          0.703849 0.698616 0.700971 0.693795 0.709911 0.702938
          0.458346 0.694074 0.707921 0.70064 0.687014 0.707898
          0.70848 0.692019 0.698446 0.700073 0.688622 0.713091
          0.695349 0.698908 0.704204 0.692216 0.719125 0.713846
          0.69967 0.684337 0.698925 0.732682 0.700655 0.710868
          0.714503 0.703556 0.712986 0.703361 0.72293 0.710504
          0.701974 0.715675 0.713955 0.441521 0.671475 0.688182
          0.695315 0.688781 0.69046 0.687031 0.692767 0.698074
          0.699787 0.69794 0.702412 0.717013 0.694072 0.703323
          0.700791 0.716416 0.694043 0.687481 0.704435 0.704351
          0.712854 0.700923 0.723947 0.714287 0.703037 0.709408
          0.705859 0.694732 0.704399 0.70883 0.711158 0.717601
          0.435812 0.671761 0.691521 0.683685 0.698505 0.698554
          0.694322 0.702258 0.704264 0.683343 0.687651 0.696897
          0.703753 0.700632 0.713332 0.704416 0.703242 0.707473
          0.715313 0.700153 0.71136 0.726096 0.718117 0.702626
          0.715775 0.704773 0.716663 0.703576 0.721294 0.724363
          0.708386 0.7103 0.715036 0.455414 0.694921 0.690787
          0.698527 0.711987 0.702547 0.706026 0.692136 0.69608
          0.707061 0.694321 0.706174 0.708617 0.700643 0.712663
          0.684147 0.696479 0.712708 0.69058 0.699836 0.705943
          0.706953 0.700802 0.701209 0.711991 0.714479 0.702286
          0.718239 0.706899 0.708243 0.698666 0.713967 0.708408
          0.459515 0.674009 0.700047 0.696274 0.711686 0.687723
          0.706197 0.701726 0.699444 0.695528 0.691126 0.713327
          0.701652 0.69409 0.709772 0.698255 0.698354 0.706911
          0.701531 0.695148 0.712044 0.714238 0.700647 0.699902
          0.704069 0.710167 0.709156 0.717628 0.708899 0.702152
          0.691957 0.703482 0.705191 0.454742 0.678863 0.681026
          0.679686 0.703074 0.681943 0.695048 0.707547 0.691272
          0.71151 0.704295 0.703232 0.692241 0.710027 0.692787
          0.714757 0.68706 0.71289 0.701767 0.698008 0.710409
          0.717652 0.709016 0.701123 0.708996 0.700073 0.691646
          0.699226 0.705567 0.706301 0.708279 0.696538 0.701328
          0.466206 0.687295 0.696107 0.702615 0.704483 0.70421
          0.688104 0.714203 0.69772 0.702545 0.69501 0.708304
          0.691773 0.711367 0.694761 0.702848 0.691444 0.705842
          0.697298 0.702487 0.717839 0.710119 0.717348 0.698067
          0.724834 0.697673 0.717638 0.719132 0.706696 0.707709
          0.693615 0.713618 0.7184 0.443577 0.671038 0.674937
          0.694515 0.68492 0.704524 0.693136 0.683475 0.691914
          0.704472 0.691225 0.707001 0.694338 0.709216 0.706153
          0.696154 0.71042 0.695313 0.703157 0.697906 0.709934
          0.715005 0.717698 0.707003 0.708334 0.70005 0.710451
          0.715049 0.702661 0.707142 0.703681 0.708863 0.707485
          0.449096 0.721824 0.696139 0.710338 0.694771 0.698854
          0.708762 0.688373 0.676418 0.707021 0.69268 0.71162
          0.69607 0.703546 0.691494 0.715827 0.697863 0.697483
          0.701622 0.701198 0.689649 0.700642 0.711727 0.703342
          0.718901 0.723819 0.691091 0.703694 0.703595 0.694967
          0.71353 0.723307 0.724988 0.44361 0.66547 0.710269
          0.695397 0.686371 0.69047 0.686162 0.69694 0.714435
          0.697944 0.689718 0.697346 0.701653 0.681776 0.701614
          0.700107 0.703952 0.70121 0.695618 0.712424 0.691928
          0.702382 0.704229 0.703458 0.704326 0.682206 0.716987
          0.694428 0.700337 0.719441 0.692543 0.69962 0.705894
          0.453012 0.677059 0.704618 0.700573 0.699098 0.709182
          0.686633 0.709178 0.694084 0.683406 0.696329 0.713274
          0.694622 0.702296 0.702296 0.690085 0.694601 0.697567
          0.691732 0.715 0.700299 0.71075 0.694285 0.701842
          0.694508 0.686781 0.695173 0.695151 0.695589 0.69655
          0.683591 0.697154 0.693325 0.457086 0.723718 0.701489
          0.696049 0.696314 0.700991 0.699559 0.69968 0.694192
          0.691659 0.703958 0.703359 0.702725 0.698875 0.709773
          0.687386 0.695295 0.689684 0.715273 0.697017 0.684925
          0.701387 0.693283 0.680068 0.688144 0.708808 0.702471
          0.695905 0.691932 0.690867 0.693974 0.6977 0.698712
          0.441251 0.713366 0.691471 0.710536 0.695505 0.679095
          0.707794 0.713774 0.701287 0.697766 0.708392 0.710618
          0.711277 0.7068 0.68908 0.700666 0.715386 0.688689
          0.71512 0.697059 0.698133 0.69385 0.703315 0.680023