<?xml version="1.0"?>
<VTKFile type="PolyData" version="0.1" byte_order="LittleEndian" header_type="UInt32" compressor="vtkZLibDataCompressor">
  <PolyData>
    <Piece NumberOfPoints="7920" NumberOfVerts="0" NumberOfLines="0" NumberOfStrips="0" NumberOfPolys="0">
      <PointData Scalars="Calcium Concentration">
        <DataArray type="Float32" Name="Calcium Concentration" format="ascii" RangeMin="0.6316310167312622" RangeMax="0.7439870238304138">
          0.66786 0.694174 0.699227 0.712837 0.710319 0.698903
          0.707884 0.695966 0.711602 0.698898 0.706587 0.694376
          0.70132 0.705962 0.69806 0.697537 0.713824 0.69073
          0.684723 0.715572 0.681814 0.689225 0.679767 0.687112
          0.691992 0.689356 0.702316 0.695561 0.690134 0.702359
          0.708973 0.695175 0.687942 0.681706 0.706894 0.70671
          0.706009 0.702102 0.698354 0.695889 0.695385 0.699248
          0.699898 0.694719 0.702867 0.701897 0.698191 0.709696
          0.695159 0.705924 0.706548 0.683233 0.699456 0.693357
          0.689533 0.669053 0.68256 0.684671 0.684495 0.697576
          0.686553 0.69261 0.703042 0.684307 0.69037 0.70185
          0.650077 0.684148 0.683418 0.686183 0.691097 0.680459
          0.686688 0.694922 0.709611 0.692923 0.694784 0.702997
          0.704008 0.701898 0.714022 0.714401 0.716081 0.708493
          0.694446 0.716443 0.707381 0.712114 0.719602 0.697295
          0.71333 0.706777 0.711524 0.698891 0.70806 0.705416
          0.712735 0.713386 0.709059 0.673739 0.688474 0.692173
          0.709213 0.698077 0.69974 0.700597 0.700978 0.708508
          0.697728 0.690331 0.704346 0.710919 0.699188 0.700778
          0.701389 0.706486 0.715532 0.690336 0.711561 0.701049
          0.684364 0.688752 0.691328 0.697838 0.697478 0.702854
          0.698144 0.690649 0.696333 0.697623 0.696771 0.690222
          0.649278 0.689048 0.683058 0.68947 0.682583 0.685128
          0.683859 0.702766 0.6966 0.692794 0.703791 0.695129
          0.709834 0.694225 0.706746 0.690767 0.698437 0.706858
          0.691684 0.707782 0.695973 0.697741 0.682659 0.696405
          0.683297 0.685637 0.688496 0.689888 0.679843 0.689894
          0.694295 0.69946 0.698877 0.663945 0.697838 0.707453
          0.708874 0.703114 0.698635 0.707357 0.685071 0.707839
          0.705539 0.703933 0.699946 0.695216 0.69018 0.704665
          0.701239 0.682417 0.69505 0.706227 0.690514 0.708319
          0.696613 0.695657 0.703352 0.71451 0.701243 0.706359
          0.706059 0.700838 0.718909 0.710577 0.692964 0.705165
          0.652481 0.686771 0.683405 0.689094 0.696966 0.691011
          0.684329 0.688501 0.72457 0.699052 0.69333 0.702485
          0.686999 0.704115 0.690473 0.700138 0.697021 0.689536
          0.689889 0.694034 0.709149 0.697711 0.701124 0.711663
          0.716525 0.722848 0.716463 0.725559 0.711804 0.713703
          0.712575 0.718302 0.714855 0.661529 0.685304 0.69628
          0.680898 0.704894 0.691796 0.683316 0.679737 0.709329
          0.712544 0.690378 0.690227 0.695609 0.696453 0.70747
          0.701475 0.697037 0.69217 0.693173 0.696959 0.706333
          0.683173 0.677802 0.683819 0.692628 0.696479 0.689723
          0.679861 0.680435 0.688953 0.688845 0.678576 0.694168
          0.666298 0.68522 0.684706 0.678822 0.679267 0.690192
          0.688298 0.696594 0.701867 0.701598 0.692725 0.694973
          0.692958 0.685887 0.696704 0.690106 0.686436 0.710556
          0.696897 0.700212 0.699442 0.693987 0.709448 0.69531
          0.712328 0.709552 0.708006 0.709815 0.71492 0.707433
          0.707655 0.709367 0.717435 0.66102 0.695285 0.698294
          0.703389 0.709112 0.687791 0.697009 0.69527 0.688303
          0.696221 0.697096 0.693041 0.69401 0.698887 0.706178
          0.70113 0.698836 0.707194 0.679654 0.703341 0.70825
          0.690029 0.703808 0.700371 0.707397 0.716024 0.70986
          0.705295 0.697691 0.714855 0.705537 0.716297 0.709629
          0.669543 0.696404 0.701991 0.693196 0.710553 0.68817
          0.711951 0.701117 0.691779 0.705527 0.692585 0.695677
          0.700985 0.698911 0.696202 0.702338 0.68343 0.693377
          0.703259 0.69843 0.713114 0.702933 0.710777 0.717585
          0.698123 0.71225 0.705619 0.705809 0.710982 0.71853
          0.702758 0.706302 0.703527 0.661782 0.672497 0.686786
          0.682232 0.682716 0.690398 0.689785 0.70138 0.702006
          0.702005 0.705009 0.690001 0.700476 0.693125 0.709843
          0.691837 0.699138 0.705201 0.689274 0.700854 0.684849
          0.710385 0.695473 0.684917 0.690348 0.703207 0.691693
          0.675347 0.695759 0.700046 0.694291 0.700221 0.703043
          0.663658 0.699691 0.692417 0.701912 0.694492 0.707554
          0.705211 0.705593 0.698263 0.706727 0.699978 0.701626
          0.697426 0.707324 0.693318 0.702924 0.711605 0.707439
          0.679072 0.700758 0.69088 0.699344 0.685362 0.693714
          0.703049 0.701937 0.690227 0.698566 0.692386 0.696113
          0.697847 0.70055 0.702268 0.674871 0.697962 0.703444
          0.713349 0.699491 0.699717 0.684416 0.711503 0.712069
          0.703233 0.696278 0.688277 0.701628 0.7125 0.706431
          0.702733 0.682763 0.705826 0.689301 0.686472 0.697809
          0.683951 0.68626 0.676359 0.684858 0.694256 0.698298
          0.685622 0.693359 0.699797 0.687933 0.683126 0.695472
          0.649723 0.687023 0.704535 0.693168 0.680607 0.690411
          0.695348 0.687979 0.70087 0.704059 0.71519 0.705598
          0.697884 0.698437 0.695946 0.710988 0.695187 0.706242
          0.707089 0.696154 0.705089 0.713107 0.708967 0.70126
          0.722461 0.701928 0.713966 0.71567 0.718657 0.714258
          0.71408 0.705245 0.708234 0.680352 0.699311 0.70119
          0.714206 0.695303 0.70071 0.705416 0.717375 0.71124
          0.688682 0.70614 0.701525 0.696014 0.69559 0.713181
          0.70459 0.694144 0.70631 0.704635 0.694381 0.685295
          0.690042 0.681873 0.694245 0.687507 0.688079 0.684464
          0.689809 0.699645 0.692859 0.688515 0.679626 0.690415
          0.657612 0.693216 0.690768 0.690739 0.685673 0.691079
          0.68766 0.692864 0.688761 0.705786 0.702742 0.695622
          0.701528 0.68767 0.699586 0.700848 0.703685 0.714702
          0.694791 0.701554 0.691873 0.699263 0.684703 0.685726
          0.682382 0.688875 0.697279 0.707755 0.703199 0.709406
          0.70148 0.680985 0.712838 0.673412 0.685873 0.667922
          0.691701 0.705844 0.687066 0.696478 0.689372 0.708846
          0.695604 0.691762 0.705642 0.698213 0.701196 0.69406
          0.69214 0.699385 0.699747 0.703644 0.69394 0.703548
          0.702505 0.703814 0.707233 0.727355 0.708651 0.699246
          0.709699 0.705457 0.711095 0.711888 0.716635 0.718033
          0.648921 0.689965 0.684624 0.687093 0.688364 0.690123
          0.683554 0.703647 0.700984 0.697875 0.697034 0.696628
          0.700185 0.69757 0.701749 0.703887 0.709069 0.696128
          0.698719 0.698516 0.692155 0.697841 0.685208 0.690175
          0.709823 0.692572 0.68782 0.68175 0.694492 0.699133
          0.688919 0.700094 0.7009 0.662271 0.696473 0.705042
          0.698051 0.706929 0.700899 0.691343 0.68886 0.710753
          0.697663 0.702203 0.698172 0.686968 0.691968 0.69117
          0.698398 0.704301 0.700712 0.693596 0.683859 0.695995
          0.6732 0.676561 0.689856 0.689613 0.69018 0.68688
          0.701253 0.685613 0.688764 0.694022 0.680067 0.68718
          0.672501 0.696702 0.702247 0.69373 0.704699 0.693692
          0.714826 0.687553 0.693618 0.704235 0.695442 0.696663
          0.703895 0.687769 0.696145 0.705751 0.703386 0.715263
          0.69823 0.702043 0.692457 0.679413 0.689288 0.687054
          0.6936 0.687467 0.690931 0.700939 0.695112 0.698209
          0.700106 0.700201 0.689861 0.665348 0.699166 0.696265
          0.704488 0.697328 0.70639 0.709214 0.687737 0.712399
          0.698596 0.682713 0.720199 0.691284 0.69401 0.706704
          0.691619 0.711473 0.695423 0.714683 0.704948 0.711394
          0.70627 0.715075 0.701895 0.717931 0.699846 0.695163
          0.716193 0.70795 0.726167 0.701401 0.701931 0.702725
          0.683013 0.681813 0.702893 0.715458 0.697768 0.704065
          0.694163 0.696989 0.703975 0.699238 0.702188 0.704721
          0.702838 0.691315 0.680456 0.717284 0.703802 0.701164
          0.700196 0.703282 0.721374 0.690517 0.717611 0.70417
          0.712661 0.703533 0.707989 0.698304 0.697761 0.721587
          0.720546 0.726606 0.708247 0.683232 0.704909 0.69479
          0.698149 0.689635 0.700726 0.707177 0.694711 0.70628
          0.689814 0.707268 0.697845 0.713562 0.696615 0.704885
          0.709146 0.700768 0.695964 0.683919 0.708579 0.704437
          0.71917 0.703928 0.712331 0.717543 0.718942 0.715692
          0.715524 0.70225 0.706956 0.714968 0.717771 0.70854
          0.671427 0.698205 0.694882 0.708158 0.697743 0.707652
          0.701584 0.70105 0.706816 0.698788 0.700433 0.678359
          0.694618 0.688697 0.702018 0.706386 0.693146 0.703171
          0.690211 0.693231 0.681861 0.679226 0.701889 0.675669
          0.700171 0.694385 0.689945 0.693893 0.696652 0.689827
          0.684173 0.691794 0.688599 0.663975 0.703096 0.699554
          0.698357 0.703241 0.701673 0.709753 0.698032 0.710624
          0.694071 0.711048 0.699721 0.710033 0.701744 0.702137
          0.699178 0.707708 0.700971 0.71191 0.700675 0.691491
          0.69045 0.686136 0.683245 0.692312 0.70196 0.694535
          0.695783 0.700602 0.692296 0.68736 0.69616 0.69969
          0.666888 0.690532 0.702524 0.708996 0.712225 0.695087
          0.698026 0.69361 0.698162 0.714857 0.692899 0.701905
          0.690017 0.703634 0.696899 0.712077 0.707562 0.681682
          0.691306 0.702605 0.700861 0.690467 0.695055 0.686526
          0.703 0.682963 0.685693 0.684248 0.684719 0.689339
          0.681849 0.688275 0.680326 0.662716 0.6883 0.693553
          0.684565 0.695635 0.693118 0.697186 0.689007 0.7063
          0.701296 0.689021 0.696514 0.692387 0.69055 0.697008
          0.692649 0.701393 0.690189 0.692816 0.705869 0.694502
          0.691946 0.688254 0.690511 0.695002 0.685057 0.684832
          0.685753 0.68927 0.717676 0.697502 0.675062 0.701179
          0.6699 0.704497 0.685049 0.690409 0.700974 0.698869
          0.712266 0.700352 0.709574 0.695235 0.678929 0.703689
          0.698772 0.697619 0.693395 0.700295 0.706423 0.694003
          0.697675 0.70076 0.683963 0.684625 0.683315 0.697003
          0.693178 0.678639 0.683568 0.705041 0.693209 0.690458
          0.696622 0.680624 0.680192 0.676627 0.698847 0.694367
          0.703319 0.697975 0.69625 0.704251 0.702613 0.709916
          0.688189 0.699136 0.708482 0.692636 0.681219 0.718242
          0.700395 0.701041 0.707791 0.692609 0.707986 0.692851
          0.693383 0.689141 0.689532 0.697682 0.681483 0.702941
          0.697489 0.688589 0.693126 0.680758 0.675335 0.685649
          0.657436 0.693461 0.687302 0.688478 0.68725 0.678715
          0.688768 0.696756 0.690435 0.710525 0.701177 0.696415
          0.705813 0.708136 0.708033 0.697719 0.69814 0.693778
          0.703895 0.691709 0.715675 0.711293 0.706221 0.715993
          0.718704 0.719773 0.695523 0.709558 0.714471 0.695783
          0.697633 0.700874 0.723298 0.655642 0.695926 0.695765
          0.684229 0.702238 0.700547 0.69059 0.687485 0.696357
          0.691264 0.692187 0.690689 0.70001 0.686056 0.698776
          0.685724 0.712809 0.701653 0.684915 0.698697 0.695849
          0.724636 0.71054 0.69114 0.708973 0.690987 0.71315
          0.714897 0.709256 0.718342 0.707119 0.710093 0.709123
          0.674126 0.701314 0.694287 0.711373 0.708493 0.702628
          0.698207 0.681908 0.718261 0.698807 0.697786 0.704253
          0.699037 0.692987 0.700034 0.703326 0.702277 0.703874
          0.69812 0.699385 0.705334 0.700887 0.707477 0.698108
          0.696068 0.704061 0.701194 0.70541 0.706332 0.715369
          0.720115 0.713334 0.705685 0.65693 0.686941 0.697589
          0.687903 0.686865 0.698481 0.693797 0.690013 0.68516
          0.715442 0.710211 0.689774 0.704712 0.698721 0.700848
          0.69911 0.695903 0.713378 0.680838 0.714104 0.698361
          0.691131 0.702765 0.702028 0.688169 0.702294 0.698962
          0.690516 0.692802 0.691938 0.68874 0.707638 0.70245
          0.659021 0.695628 0.686049 0.678487 0.686842 0.68772
          0.689951 0.690002 0.705767 0.69956 0.703189 0.696724
          0.701055 0.705046 0.697301 0.699048 0.695626 0.705554
          0.697967 0.706691 0.69381 0.690039 0.684709 0.685061
          0.690541 0.702318 0.697073 0.684933 0.706527 0.68383
          0.69293 0.683386 0.683405 0.642646 0.684925 0.705634
          0.69787 0.697763 0.679244 0.698181 0.698017 0.686895
          0.688887 0.695022 0.701345 0.706196 0.7088 0.712324
          0.705309 0.705466 0.696083 0.705406 0.693711 0.70774
          0.688069 0.698491 0.721012 0.706849 0.696112 0.706177
          0.69333 0.702819 0.694825 0.681366 0.686748 0.692502
          0.665524 0.69265 0.704127 0.7044 0.695075 0.696261
          0.698192 0.701344 0.701527 0.697225 0.709526 0.692849
          0.705101 0.701985 0.694744 0.691819 0.700478 0.696151
          0.712593 0.702354 0.680062 0.690394 0.679742 0.687769
          0.698476 0.688523 0.684754 0.696229 0.696725 0.690699
          0.681177 0.692772 0.689127 0.631631 0.675446 0.701662
          0.701186 0.679668 0.688953 0.692013 0.701978 0.702631
          0.693821 0.683833 0.708806 0.699823 0.699578 0.700071
          0.687298 0.698008 0.694967 0.705488 0.698647 0.698684
          0.709748 0.714054 0.708926 0.708119 0.709711 0.728289
          0.712972 0.714874 0.701977 0.71773 0.711424 0.723512
          0.67422 0.700184 0.703812 0.699182 0.694503 0.694882
          0.690872 0.701465 0.707421 0.695499 0.709111 0.698691
          0.69171 0.703881 0.689479 0.709695 0.703617 0.712437
          0.701598 0.710617 0.700613 0.700807 0.706432 0.708801
          0.6982 0.710263 0.686386 0.682564 0.689493 0.703027
          0.684009 0.698829 0.689666 0.669061 0.696566 0.698906
          0.69008 0.69614 0.692995 0.694378 0.695087 0.687553
          0.705942 0.692315 0.711872 0.704549 0.685902 0.714527
          0.69804 0.706701 0.687821 0.700386 0.710659 0.692703
          0.694793 0.682383 0.699331 0.688485 0.68582 0.691377
          0.687226 0.700382 0.71346 0.708678 0.687712 0.688025
          0.660429 0.706838 0.709736 0.708021 0.687615 0.698181
          0.702613 0.698167 0.700942 0.707851 0.70926 0.696647
          0.700079 0.710328 0.702296 0.714016 0.710676 0.695302
          0.701208 0.701235 0.694321 0.698588 0.698029 0.704791
          0.685643 0.71169 0.684727 0.693178 0.702321 0.682022
          0.690399 0.681817 0.694388 0.670847 0.716509 0.702769
          0.694299 0.698005 0.698838 0.701033 0.696791 0.709066
          0.70236 0.69776 0.700964 0.698885 0.683354 0.710484
          0.703138 0.714899 0.707167 0.693064 0.687338 0.708115
          0.710929 0.701068 0.719397 0.720997 0.706641 0.710716
          0.707429 0.708163 0.712028 0.705075 0.703577 0.712203
          0.664091 0.692723 0.699441 0.700207 0.704571 0.708932
          0.695232 0.701554 0.705963 0.720353 0.694596 0.700286
          0.68848 0.709848 0.690023 0.708589 0.705767 0.697685
          0.691189 0.687255 0.688323 0.685916 0.688491 0.686896
          0.701199 0.691775 0.685426 0.68665 0.693713 0.696664
          0.701012 0.693686 0.679317 0.671334 0.694515 0.688942
          0.694342 0.707218 0.702827 0.70346 0.693376 0.698415
          0.699411 0.698805 0.70318 0.706021 0.692667 0.705148
          0.697872 0.704781 0.711501 0.690353 0.710299 0.708641
          0.710433 0.710255 0.699652 0.720136 0.711809 0.699649
          0.711116 0.71904 0.702192 0.706176 0.710098 0.708845
          0.643453 0.688873 0.69834 0.690505 0.683493 0.690204
          0.701505 0.708044 0.702254 0.693424 0.695844 0.686037
          0.707602 0.711247 0.700235 0.699001 0.704115 0.701847
          0.705045 0.702865 0.711891 0.705097 0.706725 0.733064
          0.706238 0.709514 0.7242 0.721033 0.717415 0.701323
          0.715786 0.712679 0.702888 0.640519 0.681708 0.684392
          0.686925 0.6941 0.70297 0.69979 0.681482 0.690414
          0.723381 0.701661 0.686844 0.697442 0.699333 0.711652
          0.694377 0.707699 0.681038 0.699929 0.697963 0.708713
          0.716867 0.708739 0.701226 0.722195 0.717258 0.707856
          0.689285 0.714778 0.703489 0.710779 0.715964 0.722443
          0.660533 0.677751 0.686268 0.685178 0.68022 0.68693
          0.684236 0.698238 0.71048 0.697482 0.69237 0.710379
          0.703874 0.697096 0.692856 0.704082 0.700809 0.702177
          0.690179 0.711213 0.712448 0.722637 0.707679 0.697636
          0.702168 0.695837 0.703746 0.699585 0.708889 0.705267
          0.715128 0.71713 0.714299 0.680342 0.691886 0.693292
          0.698442 0.707068 0.697559 0.688509 0.70525 0.700366
          0.695788 0.686817 0.699699 0.703864 0.694231 0.701149
          0.703333 0.706422 0.707349 0.706304 0.696483 0.69948
          0.725191 0.710134 0.695837 0.712701 0.705998 0.719218
          0.702795 0.708205 0.720149 0.712034 0.699935 0.719726
          0.660652 0.68222 0.700192 0.693928 0.703128 0.712926
          0.681725 0.686942 0.687979 0.721551 0.71763 0.70429
          0.705904 0.685359 0.709641 0.697525 0.698132 0.69948
          0.698323 0.692894 0.701539 0.675498 0.70188 0.697273
          0.68712 0.694673 0.690187 0.682266 0.686424 0.698635
          0.699316 0.691173 0.698713 0.664636 0.698896 0.70356
          0.694045 0.702407 0.698793 0.714883 0.712679 0.695026
          0.690487 0.693194 0.697824 0.6953 0.717701 0.705386
          0.689884 0.690637 0.698265 0.701899 0.697113 0.701534
          0.69074 0.688558 0.690058 0.704509 0.70933 0.705435
          0.704798 0.70182 0.692106 0.688926 0.688705 0.686303
          0.662833 0.702191 0.690074 0.693269 0.685976 0.689066
          0.698816 0.697471 0.699298 0.691234 0.687046 0.685522
          0.705457 0.7125 0.704196 0.692443 0.699172 0.696788
          0.7043 0.688387 0.682712 0.692052 0.69561 0.693852
          0.698509 0.690406 0.697233 0.695923 0.70384 0.684868
          0.697089 0.702809 0.711031 0.641685 0.694095 0.688689
          0.708155 0.676453 0.686978 0.699565 0.693488 0.684508
          0.699461 0.710148 0.700653 0.70817 0.710195 0.713171
          0.690783 0.689632 0.709071 0.704869 0.693984 0.720641
          0.70933 0.703201 0.71367 0.716265 0.707911 0.708076
          0.706198 0.713531 0.697084 0.709054 0.711444 0.704475
          0.637933 0.683008 0.70606 0.695082 0.680208 0.670435
          0.687947 0.69856 0.689075 0.704049 0.70295 0.698222
          0.708778 0.703411 0.698039 0.699457 0.701174 0.696963
          0.703331 0.700749 0.701179 0.695358 0.696951 0.704304
          0.679272 0.684938 0.699489 0.686831 0.687137 0.694269
          0.694825 0.693815 0.704235 0.671169 0.692079 0.683883
          0.689252 0.686968 0.708843 0.679136 0.66668 0.710131
          0.699327 0.690875 0.706018 0.69355 0.688315 0.700877
          0.706488 0.702545 0.699971 0.695197 0.701994 0.693505
          0.691504 0.699863 0.678106 0.69532 0.703091 0.699359
          0.67666 0.695385 0.691299 0.696774 0.712505 0.6806
          0.681394 0.704765 0.709581 0.68611 0.705248 0.705473
          0.718418 0.694811 0.714609 0.699165 0.69492 0.699904
          0.698175 0.68018 0.702142 0.703887 0.706285 0.690879
          0.704809 0.697936 0.701693 0.701189 0.701382 0.713343
          0.71234 0.713423 0.699153 0.70891 0.716284 0.72173
          0.711824 0.716675 0.715994 0.673585 0.706307 0.701748
          0.695653 0.700224 0.685878 0.689172 0.691059 0.716578
          0.696293 0.695166 0.699489 0.694258 0.687679 0.685868
          0.713783 0.699458 0.68838 0.687581 0.697327 0.70416
          0.706091 0.698754 0.711083 0.68338 0.703174 0.715951
          0.706024 0.705651 0.716244 0.703435 0.720078 0.703749
          0.635718 0.690551 0.698069 0.686292 0.692922 0.69214
          0.685906 0.703363 0.698529 0.699992 0.69512 0.712028
          0.695244 0.707736 0.707379 0.705648 0.703936 0.70373
          0.691046 0.699125 0.697737 0.691298 0.690543 0.711965
          0.704922 0.700693 0.710855 0.704504 0.701119 0.684457
          0.708892 0.705678 0.698448 0.678951 0.706999 0.708635
          0.702152 0.698519 0.703977 0.70438 0.706089 0.686232
          0.705554 0.705684 0.695863 0.689252 0.694899 0.704826
          0.698569 0.684818 0.691004 0.701974 0.690188 0.713471
          0.703182 0.706256 0.709157 0.710722 0.699076 0.700601
          0.714268 0.696679 0.695992 0.710108 0.712565 0.711499
          0.654493 0.689766 0.679534 0.689119 0.683085 0.692781
          0.687774 0.704562 0.710768 0.699377 0.707031 0.696737
          0.694222 0.702603 0.689877 0.712536 0.694022 0.698457
          0.696393 0.698167 0.712396 0.689601 0.689541 0.691019
          0.680127 0.683808 0.691286 0.696957 0.684873 0.683641
          0.692356 0.69079 0.699044 0.670169 0.703473 0.693862
          0.690636 0.712532 0.681363 0.695497 0.699406 0.695487
          0.713639 0.710882 0.700598 0.703437 0.700055 0.687488
          0.706049 0.701706 0.698414 0.701926 0.697805 0.696358
          0.689568 0.689953 0.69714 0.697938 0.698503 0.700964
          0.685187 0.694996 0.68516 0.68411 0.68881 0.684871
          0.68099 0.698861 0.696058 0.696225 0.699199 0.690818
          0.690756 0.695043 0.705105 0.707116 0.702736 0.701692
          0.694751 0.699845 0.698936 0.697289 0.68983 0.701912
          0.704607 0.702395 0.690412 0.699615 0.689846 0.696035
          0.694984 0.690587 0.701604 0.679513 0.684414 0.676624
          0.684989 0.701585 0.68981 0.689429 0.704596 0.692484
          0.703508 0.708541 0.674369 0.699746 0.702463 0.69588
          0.708067 0.701957 0.707445 0.707539 0.704785 0.708844
          0.702566 0.707896 0.690264 0.71545 0.691318 0.690034
          0.685965 0.676551 0.691175 0.700893 0.691378 0.682238
          0.682145 0.694946 0.702985 0.692601 0.681767 0.688276
          0.65071 0.68767 0.696842 0.687049 0.689999 0.687949
          0.702048 0.693313 0.685176 0.690401 0.71291 0.699471
          0.699305 0.697061 0.691679 0.695571 0.705577 0.702312
          0.706689 0.688699 0.720583 0.712334 0.71201 0.711759
          0.700825 0.726319 0.71724 0.725969 0.711392 0.701812
          0.728545 0.713154 0.711731 0.653386 0.689699 0.689992
          0.679446 0.673756 0.686231 0.713115 0.698117 0.698371
          0.695621 0.713052 0.69178 0.70719 0.712401 0.692295
          0.705077 0.694464 0.710487 0.701274 0.709133 0.691416
          0.681711 0.682143 0.690192 0.691283 0.699742 0.699979
          0.687648 0.692316 0.681537 0.69414 0.698952 0.700036
          0.668306 0.691688 0.681139 0.704904 0.68837 0.686487
          0.6857 0.679592 0.697477 0.709076 0.707028 0.701433
          0.709742 0.694442 0.701894 0.698365 0.70607 0.704722
          0.699138 0.694376 0.724143 0.714672 0.703297 0.728344
          0.712611 0.704976 0.707373 0.696643 0.720484 0.730275
          0.719257 0.709218 0.699988 0.637456 0.693176 0.710179
          0.707577 0.696093 0.70309 0.712986 0.706121 0.684881
          0.713671 0.693241 0.707721 0.711125 0.70893 0.707109
          0.693114 0.705928 0.708297 0.70792 0.693851 0.709034
          0.700083 0.701174 0.707558 0.705714 0.701091 0.697705
          0.699425 0.687732 0.674416 0.673494 0.694871 0.687693
          0.664857 0.705535 0.696336 0.695274 0.698115 0.695614
          0.706927 0.702108 0.695843 0.70185 0.704654 0.703179
          0.709739 0.69784 0.718076 0.694428 0.69415 0.706195
          0.692734 0.699873 0.681485 0.704667 0.685032 0.692366
          0.689999 0.708164 0.678936 0.686369 0.69222 0.700318
          0.68483 0.704558 0.686128 0.658513 0.70746 0.701341
          0.690443 0.702328 0.701306 0.707375 0.694715 0.703304
          0.697839 0.706154 0.695854 0.700065 0.712867 0.685424
          0.706506 0.707861 0.696507 0.712402 0.713065 0.697079
          0.682609 0.700043 0.700285 0.704287 0.691507 0.690248
          0.69316 0.706886 0.683488 0.685421 0.692173 0.693405
          0.667276 0.702213 0.705464 0.697136 0.693064 0.693598
          0.691181 0.687168 0.686242 0.689916 0.687686 0.700897
          0.707509 0.695349 0.691607 0.707852 0.703667 0.689901
          0.702166 0.692753 0.693558 0.708375 0.708096 0.704924
          0.695986 0.709877 0.701407 0.720875 0.712004 0.70489
          0.692117 0.725757 0.712246 0.659524 0.679977 0.685359
          0.69027 0.697531 0.69796 0.691645 0.697673 0.698539
          0.706679 0.712347 0.690493 0.700631 0.682573 0.688463
          0.694941 0.700184 0.701291 0.695175 0.696478 0.687897
          0.682809 0.687424 0.686875 0.693055 0.698124 0.682219
          0.690324 0.696004 0.689906 0.698051 0.694268 0.683032
          0.683068 0.702279 0.686539 0.705616 0.695122 0.700462
          0.690083 0.688417 0.701953 0.717552 0.682716 0.715576
          0.710559 0.69789 0.702157 0.70297 0.711239 0.692911
          0.691968 0.692009 0.691157 0.678429 0.688708 0.691179
          0.689165 0.679331 0.69999 0.681389 0.685972 0.692564
          0.687418 0.704489 0.697732 0.658559 0.700348 0.692024
          0.703649 0.69474 0.689625 0.699058 0.705615 0.687024
          0.702632 0.703287 0.697574 0.702895 0.69945 0.716089
          0.686489 0.686984 0.707504 0.711248 0.702798 0.696916
          0.712172 0.709501 0.703402 0.70155 0.698812 0.703877
          0.702879 0.695907 0.698191 0.690663 0.706204 0.700644
          0.671857 0.703233 0.702102 0.692574 0.70391 0.688186
          0.704559 0.701751 0.705986 0.694693 0.703398 0.696561
          0.699927 0.718936 0.712597 0.687845 0.703342 0.703488
          0.684795 0.694404 0.720484 0.703042 0.705251 0.722018
          0.713856 0.700577 0.689951 0.716187 0.707886 0.690842
          0.712009 0.716808 0.715187 0.649473 0.684195 0.687919
          0.6954 0.689608 0.68534 0.687485 0.691877 0.711372
          0.700047 0.705958 0.687893 0.696672 0.704312 0.705175
          0.70538 0.687159 0.713914 0.685004 0.702561 0.721852
          0.721028 0.71243 0.710569 0.704378 0.695087 0.700258
          0.705828 0.704375 0.705711 0.710852 0.708209 0.710987
          0.651228 0.696743 0.686672 0.683894 0.682058 0.696445
          0.704899 0.693618 0.685394 0.688194 0.698414 0.699771
          0.700388 0.704562 0.698112 0.682499 0.681973 0.700336
          0.700108 0.70281 0.72124 0.721354 0.717385 0.71539
          0.710958 0.701979 0.719787 0.702298 0.7015 0.702245
          0.70736 0.709732 0.712099 0.673846 0.697341 0.683961
          0.69677 0.697709 0.698011 0.693205 0.697044 0.705949
          0.707767 0.69615 0.697617 0.69337 0.702311 0.693349
          0.688843 0.711316 0.696743 0.700949 0.699322 0.717467
          0.706042 0.70621 0.707281 0.708821 0.713285 0.722124
          0.696046 0.709297 0.704379 0.710343 0.730136 0.700573
          0.657767 0.693151 0.717234 0.702456 0.698297 0.689763
          0.701963 0.709456 0.708213 0.680276 0.70162 0.69892
          0.709406 0.684959 0.690746 0.696688 0.706856 0.693593
          0.703527 0.712869 0.706357 0.702316 0.697144 0.708876
          0.704514 0.707544 0.711232 0.718199 0.709009 0.691497
          0.700014 0.716186 0.694714 0.652848 0.688479 0.679649
          0.68382 0.688142 0.689167 0.696945 0.709247 0.696215
          0.706875 0.686638 0.709574 0.705116 0.683764 0.708662
          0.693722 0.691986 0.690003 0.698865 0.708111 0.700158
          0.703548 0.710448 0.69822 0.696552 0.704049 0.696454
          0.699458 0.686589 0.714289 0.708309 0.705884 0.721486
          0.67141 0.699893 0.711026 0.696399 0.706357 0.691893
          0.720032 0.695999 0.69614 0.707713 0.708082 0.68938
          0.712235 0.693819 0.701767 0.703165 0.686639 0.700155
          0.700011 0.685628 0.705525 0.698155 0.69719 0.713339
          0.701671 0.710961 0.716996 0.698891 0.708688 0.693179
          0.7077 0.71203 0.709084 0.656803 0.684022 0.692519
          0.695454 0.69511 0.699781 0.685182 0.699079 0.689414
          0.700068 0.697828 0.688169 0.705371 0.703013 0.6938
          0.707442 0.68966 0.696913 0.701299 0.687611 0.703919
          0.716655 0.694408 0.692292 0.713024 0.721432 0.708168
          0.711555 0.706882 0.701437 0.690132 0.702636 0.703789
          0.673851 0.70556 0.700784 0.686303 0.725045 0.703296
          0.698059 0.692299 0.702205 0.699421 0.727086 0.697132
          0.685412 0.684033 0.7037 0.693973 0.702549 0.702302
          0.706016 0.682654 0.699008 0.713688 0.708467 0.70257
          0.708897 0.708058 0.699822 0.713568 0.700406 0.709697
          0.717887 0.715393 0.717684 0.643056 0.695005 0.676295
          0.703184 0.682667 0.695143 0.695179 0.70715 0.698234
          0.698563 0.699388 0.688055 0.694909 0.693693 0.694
          0.696718 0.686331 0.70637 0.70268 0.687737 0.691543
          0.695273 0.707103 0.708786 0.704167 0.694765 0.694987
          0.706489 0.703485 0.675235 0.691998 0.701885 0.696597
          0.667019 0.708275 0.692431 0.708712 0.7032 0.692343
          0.709649 0.702794 0.703525 0.700428 0.709482 0.686883
          0.710238 0.689032 0.707485 0.709475 0.706479 0.696817
          0.706482 0.701173 0.682416 0.70655 0.689968 0.699448
          0.698238 0.692629 0.696291 0.696255 0.689791 0.688169
          0.678181 0.700593 0.697181 0.691844 0.68866 0.695642
          0.709083 0.692227 0.70095 0.697942 0.700579 0.715463
          0.702667 0.69004 0.707985 0.682414 0.701189 0.699165
          0.698967 0.7076 0.693887 0.687005 0.701893 0.699837
          0.691974 0.691261 0.676187 0.687851 0.702345 0.687018
          0.683552 0.703313 0.703862 0.693262 0.693425 0.6902
          0.683087 0.695683 0.700519 0.688037 0.698597 0.707639
          0.705683 0.68766 0.70499 0.700616 0.698971 0.712767
          0.68713 0.690447 0.693523 0.709369 0.705023 0.697746
          0.693532 0.696141 0.69864 0.704715 0.702392 0.685916