<?xml version="1.0"?>
<VTKFile type="PolyData" version="0.1" byte_order="LittleEndian" header_type="UInt32" compressor="vtkZLibDataCompressor">
  <PolyData>
    <Piece NumberOfPoints="8160" NumberOfVerts="0" NumberOfLines="0" NumberOfStrips="0" NumberOfPolys="0">
      <PointData Scalars="Calcium Concentration">
        <DataArray type="Float32" Name="Calcium Concentration" format="ascii" RangeMin="0.17662400007247925" RangeMax="0.7385720014572144">
          0.191498 0.677437 0.686941 0.705565 0.715999 0.70183
          0.693705 0.694515 0.687672 0.701836 0.695976 0.710382
          0.695586 0.698246 0.703272 0.704572 0.690786 0.712527
          0.696106 0.687112 0.708389 0.684892 0.698018 0.678599
          0.680315 0.693539 0.693946 0.703697 0.695719 0.685688
          0.706673 0.697812 0.69372 0.695553 0.200817 0.692521
          0.701155 0.707384 0.711685 0.702549 0.689355 0.687968
          0.709548 0.70373 0.699861 0.698167 0.708133 0.705361
          0.693677 0.706149 0.694476 0.715036 0.695812 0.695364
          0.687761 0.690461 0.688611 0.678779 0.68398 0.700244
          0.689487 0.684328 0.690129 0.695785 0.709866 0.689327
          0.688168 0.693424 0.18948 0.665268 0.692273 0.679409
          0.683532 0.685762 0.688767 0.693685 0.689705 0.709391
          0.686168 0.696997 0.702031 0.697891 0.698174 0.70676
          0.706357 0.718053 0.71341 0.695063 0.710522 0.712868
          0.712243 0.721275 0.700632 0.704292 0.705625 0.717622
          0.706035 0.713263 0.704488 0.708489 0.704376 0.716683
          0.190886 0.685267 0.691414 0.696202 0.702048 0.697484
          0.706555 0.690836 0.714009 0.710312 0.696432 0.699637
          0.701698 0.708469 0.692208 0.701712 0.691908 0.705071
          0.702202 0.696779 0.701311 0.697374 0.691705 0.686276
          0.693089 0.699354 0.698937 0.703428 0.711998 0.699343
          0.698419 0.69929 0.696029 0.69128 0.188343 0.664258
          0.685339 0.68514 0.686747 0.69374 0.685541 0.682586
          0.707294 0.699565 0.701846 0.691096 0.696 0.704012
          0.69038 0.701029 0.697305 0.704252 0.707848 0.698997
          0.702836 0.68993 0.704861 0.676383 0.689967 0.687883
          0.692138 0.689363 0.692809 0.694154 0.686991 0.699737
          0.702088 0.689774 0.200075 0.686149 0.697514 0.70275
          0.705196 0.708306 0.697994 0.709295 0.67782 0.701088
          0.705919 0.703247 0.691906 0.697507 0.695203 0.700171
          0.695285 0.687263 0.701151 0.70598 0.69402 0.716599
          0.699545 0.703977 0.709527 0.725877 0.713409 0.695922
          0.693905 0.701811 0.714818 0.701849 0.698478 0.705701
          0.191505 0.667177 0.692951 0.685675 0.684744 0.696365
          0.676967 0.683782 0.690284 0.723351 0.690205 0.697128
          0.705274 0.696986 0.702509 0.68827 0.695832 0.715338
          0.697236 0.699274 0.689134 0.70847 0.698476 0.704079
          0.70229 0.718979 0.719591 0.715984 0.721191 0.71289
          0.708308 0.72068 0.705926 0.707327 0.190002 0.681863
          0.698081 0.701521 0.686926 0.707927 0.686588 0.680684
          0.687241 0.704335 0.716508 0.699281 0.689473 0.708019
          0.690678 0.716197 0.707539 0.695534 0.694273 0.689606
          0.691149 0.696539 0.691295 0.680722 0.693855 0.690785
          0.700438 0.68239 0.682936 0.690248 0.68968 0.688675
          0.672521 0.695772 0.184811 0.672356 0.680486 0.677182
          0.676236 0.686568 0.69173 0.698996 0.694913 0.702776
          0.705252 0.690861 0.696152 0.705452 0.687511 0.705765
          0.703399 0.698168 0.710124 0.696236 0.701182 0.717749
          0.701124 0.709178 0.692503 0.718467 0.698391 0.7102
          0.706469 0.706831 0.713313 0.714995 0.711066 0.716471
          0.193445 0.682772 0.688286 0.6995 0.705403 0.713062
          0.696768 0.686928 0.709563 0.697953 0.701054 0.694474
          0.692479 0.701012 0.701729 0.700886 0.699751 0.699624
          0.716561 0.689228 0.709508 0.713397 0.693992 0.712138
          0.703698 0.705213 0.699971 0.709957 0.708405 0.70158
          0.715836 0.697878 0.71468 0.71376 0.185904 0.689065
          0.697097 0.712831 0.686779 0.715171 0.690433 0.700938
          0.702656 0.704383 0.699608 0.695076 0.699957 0.695444
          0.684815 0.703391 0.700586 0.687546 0.700574 0.709008
          0.709032 0.708081 0.709428 0.713601 0.711163 0.69459
          0.697906 0.700335 0.719263 0.706732 0.719166 0.70802
          0.707476 0.707452 0.1796 0.669828 0.680433 0.689993
          0.683973 0.685953 0.684257 0.700421 0.70334 0.700849
          0.705822 0.705151 0.696164 0.6948 0.697746 0.707758
          0.70088 0.696683 0.706598 0.690444 0.690529 0.684009
          0.711639 0.683312 0.685625 0.701197 0.693394 0.693977
          0.680611 0.693282 0.696977 0.696533 0.694636 0.695803
          0.19383 0.683911 0.707539 0.69199 0.68916 0.697303
          0.709542 0.696906 0.711332 0.696021 0.701328 0.69523
          0.703685 0.693458 0.691052 0.699431 0.698154 0.69575
          0.708504 0.694334 0.687685 0.685879 0.701925 0.691338
          0.686494 0.696967 0.694575 0.689729 0.698041 0.692713
          0.694597 0.688516 0.698588 0.69318 0.197059 0.688593
          0.686166 0.702707 0.709536 0.689774 0.698803 0.688885
          0.702018 0.714489 0.704209 0.688012 0.694416 0.714891
          0.706028 0.69687 0.696146 0.696985 0.712115 0.701144
          0.6903 0.692432 0.676505 0.682305 0.678594 0.691414
          0.687774 0.696617 0.69253 0.693221 0.702901 0.690319
          0.681989 0.704155 0.187117 0.65202 0.68966 0.699848
          0.693693 0.683887 0.691115 0.699117 0.685069 0.702563
          0.695242 0.706243 0.695064 0.702645 0.685123 0.691845
          0.707323 0.69381 0.700998 0.696632 0.708154 0.712925
          0.715845 0.713883 0.701665 0.721039 0.707862 0.698932
          0.720872 0.7175 0.707524 0.720156 0.71191 0.705817
          0.189373 0.69703 0.700258 0.691931 0.718714 0.706277
          0.692252 0.694325 0.711429 0.704684 0.69486 0.702198
          0.708756 0.701283 0.694345 0.701277 0.700788 0.69784
          0.693916 0.697968 0.68949 0.685318 0.698502 0.682349
          0.694092 0.69718 0.695254 0.688529 0.687157 0.693442
          0.691809 0.69558 0.685904 0.69845 0.181884 0.665531
          0.697627 0.68732 0.693826 0.68781 0.692083 0.686576
          0.694981 0.682353 0.704648 0.705805 0.704764 0.7006
          0.696315 0.701537 0.694067 0.718702 0.706204 0.702272
          0.697267 0.701019 0.705294 0.687525 0.689699 0.693113
          0.686214 0.70292 0.702506 0.707868 0.713799 0.706556
          0.682383 0.702681 0.185497 0.680115 0.680486 0.6727
          0.689582 0.699736 0.686326 0.707936 0.686935 0.710417
          0.70004 0.705999 0.70228 0.696089 0.70119 0.692882
          0.697025 0.699771 0.698153 0.698736 0.690524 0.712912
          0.711814 0.706954 0.708545 0.731418 0.70208 0.702134
          0.709335 0.707762 0.708015 0.69819 0.719547 0.722195
          0.18531 0.66476 0.691508 0.688 0.692074 0.684515
          0.695914 0.696944 0.702767 0.704903 0.702173 0.687731
          0.699218 0.698087 0.694451 0.698737 0.707524 0.711224
          0.697954 0.707079 0.690318 0.694029 0.692174 0.686837
          0.690396 0.700088 0.690841 0.680668 0.683683 0.69571
          0.702549 0.68422 0.698392 0.701616 0.196945 0.679351
          0.696116 0.709668 0.691386 0.700078 0.70176 0.692143
          0.701795 0.71053 0.693582 0.702809 0.697302 0.686816
          0.694088 0.696745 0.699817 0.702749 0.713412 0.695914
          0.68948 0.703621 0.682919 0.682254 0.698962 0.685726
          0.686949 0.696235 0.700596 0.687206 0.681001 0.689733
          0.685234 0.690741 0.186608 0.686839 0.685078 0.690875
          0.695558 0.69701 0.700672 0.714166 0.687332 0.686429
          0.709793 0.69129 0.699664 0.700916 0.684839 0.688355
          0.704623 0.703172 0.708404 0.694851 0.690833 0.697643
          0.677857 0.681786 0.686408 0.690982 0.694216 0.688478
          0.700785 0.69497 0.692884 0.695 0.700015 0.699672
          0.195837 0.676367 0.693982 0.692175 0.698993 0.697887
          0.705755 0.702316 0.686747 0.708273 0.694185 0.687469
          0.712732 0.69601 0.685955 0.694377 0.691989 0.713562
          0.69483 0.704945 0.69634 0.703691 0.710375 0.70712
          0.709395 0.714931 0.71691 0.694144 0.7209 0.707963
          0.726062 0.702037 0.697615 0.706739 0.192338 0.703071
          0.682259 0.705423 0.704735 0.701161 0.706595 0.712479
          0.693026 0.701 0.700334 0.692158 0.703775 0.693155
          0.685605 0.694602 0.706467 0.705741 0.700516 0.703906
          0.709106 0.714895 0.699548 0.712123 0.71418 0.710774
          0.702354 0.7041 0.699951 0.698047 0.717486 0.716346
          0.72806 0.713129 0.190237 0.697224 0.707689 0.685399
          0.706313 0.697069 0.707467 0.696643 0.69754 0.698579
          0.697905 0.697829 0.696716 0.711227 0.694213 0.698101
          0.706239 0.713292 0.697191 0.686735 0.709769 0.697899
          0.71193 0.712533 0.711006 0.715699 0.714392 0.713785
          0.720883 0.707294 0.703449 0.703816 0.703421 0.71269
          0.183171 0.675344 0.696026 0.698311 0.705145 0.68795
          0.713892 0.701906 0.702161 0.705607 0.701982 0.703145
          0.688278 0.707464 0.69658 0.700179 0.705085 0.688832
          0.696937 0.696552 0.698213 0.681056 0.668361 0.699386
          0.682533 0.698747 0.699363 0.690785 0.697458 0.702332
          0.686781 0.680205 0.685598 0.692712 0.197801 0.669117
          0.705369 0.712064 0.706655 0.708582 0.703815 0.700073
          0.690068 0.702897 0.689031 0.703976 0.703827 0.708966
          0.700249 0.703275 0.695536 0.700547 0.698246 0.706567
          0.704229 0.688985 0.68144 0.681551 0.681788 0.685556
          0.704956 0.695292 0.698038 0.703319 0.692593 0.688072
          0.695225 0.691404 0.201022 0.690756 0.683014 0.703901
          0.708774 0.704844 0.705878 0.694157 0.689757 0.690035
          0.722628 0.690792 0.700533 0.700054 0.69712 0.688444
          0.71037 0.723933 0.683087 0.693561 0.708991 0.697286
          0.674426 0.702357 0.691594 0.696465 0.683828 0.694972
          0.679086 0.686846 0.686594 0.68142 0.690443 0.688012
          0.199747 0.676253 0.693648 0.688737 0.681291 0.691381
          0.694178 0.68796 0.686095 0.707094 0.697256 0.678713
          0.689798 0.680609 0.684964 0.701867 0.697379 0.686651
          0.705018 0.688346 0.708745 0.698191 0.688541 0.689715
          0.68807 0.697018 0.690972 0.686684 0.683168 0.684151
          0.705401 0.694932 0.677422 0.703388 0.188965 0.684578
          0.694818 0.693215 0.698612 0.694372 0.700737 0.709785
          0.691298 0.729128 0.686668 0.677253 0.711806 0.699915
          0.705204 0.698321 0.695818 0.698533 0.687161 0.707066
          0.700342 0.688822 0.675163 0.682868 0.697016 0.684704
          0.684401 0.69266 0.7147 0.700344 0.688741 0.702157
          0.69379 0.685618 0.188962 0.680329 0.692494 0.690816
          0.701529 0.692965 0.70155 0.692008 0.696207 0.709565
          0.704326 0.69089 0.702584 0.700546 0.686796 0.722292
          0.696158 0.691262 0.709289 0.688371 0.699512 0.687568
          0.695478 0.694312 0.687701 0.694913 0.683247 0.70165
          0.693942 0.69702 0.694678 0.679295 0.674841 0.695226
          0.186858 0.665821 0.691822 0.684869 0.68359 0.694661
          0.681638 0.700368 0.688255 0.700245 0.704198 0.703238
          0.708796 0.702704 0.697107 0.700021 0.694717 0.692034
          0.690616 0.694739 0.693807 0.716261 0.711442 0.718219
          0.715795 0.720414 0.720532 0.695368 0.710409 0.708333
          0.69207 0.704852 0.700666 0.710332 0.192187 0.679721
          0.70348 0.694933 0.693967 0.696151 0.703178 0.685094
          0.68493 0.687038 0.696396 0.684932 0.690438 0.710613
          0.694535 0.70843 0.698189 0.699198 0.701227 0.693186
          0.704989 0.7036 0.728739 0.702574 0.699212 0.716974
          0.692394 0.708972 0.714876 0.708032 0.711707 0.710312
          0.708951 0.713212 0.187376 0.679116 0.687725 0.695285
          0.708172 0.70339 0.711797 0.692899 0.691729 0.714762
          0.689206 0.684522 0.715519 0.698589 0.688198 0.696821
          0.691793 0.699954 0.7132 0.691062 0.70332 0.704296
          0.703863 0.712241 0.706897 0.704514 0.707225 0.70982
          0.700497 0.714959 0.72089 0.713111 0.712968 0.710055
          0.191913 0.666125 0.686082 0.705079 0.680545 0.687244
          0.685742 0.693045 0.685569 0.685678 0.714448 0.71193
          0.692345 0.700994 0.69844 0.713326 0.704411 0.699621
          0.702704 0.692966 0.707959 0.692521 0.690321 0.714355
          0.707441 0.680703 0.690839 0.699592 0.684938 0.692919
          0.695018 0.68992 0.703181 0.69981 0.197802 0.676431
          0.689066 0.685953 0.678971 0.688402 0.685034 0.685547
          0.704763 0.704116 0.700337 0.711128 0.699417 0.704033
          0.698289 0.70488 0.708296 0.698968 0.699419 0.723157
          0.701269 0.703583 0.692526 0.68416 0.684509 0.684312
          0.698841 0.698522 0.69162 0.705389 0.688637 0.700068
          0.68701 0.690537 0.191977 0.657964 0.68309 0.698405
          0.701196 0.696879 0.679361 0.689445 0.698746 0.69488
          0.685263 0.690378 0.697054 0.699521 0.714577 0.708728
          0.704874 0.711994 0.703632 0.710925 0.68992 0.703625
          0.697658 0.69256 0.710228 0.701039 0.704847 0.702521
          0.704778 0.697643 0.693775 0.682905 0.685432 0.688061
          0.183359 0.677951 0.683212 0.705372 0.698501 0.705401
          0.701825 0.697512 0.705964 0.701739 0.69106 0.703494
          0.694138 0.693115 0.689954 0.705117 0.690187 0.698935
          0.692256 0.708541 0.696661 0.689018 0.700392 0.683292
          0.687261 0.69874 0.683887 0.688837 0.701221 0.699585
          0.68473 0.677305 0.691174 0.68019 0.186166 0.656801
          0.682765 0.689269 0.700295 0.689024 0.681289 0.69032
          0.702221 0.693984 0.70124 0.694683 0.702137 0.69654
          0.685614 0.703543 0.690665 0.698691 0.693416 0.700646
          0.691251 0.69832 0.711418 0.705863 0.709767 0.70995
          0.717313 0.712991 0.713345 0.716406 0.692038 0.720926
          0.717541 0.711427 0.196616 0.692542 0.687705 0.696059
          0.700765 0.69253 0.69427 0.692183 0.697716 0.708163
          0.686499 0.706542 0.696547 0.689776 0.700483 0.705182
          0.697422 0.704291 0.715538 0.69419 0.701937 0.698418
          0.692 0.701428 0.709875 0.704412 0.709134 0.692166
          0.680208 0.700472 0.698802 0.684241 0.691007 0.691437
          0.190003 0.6887 0.69826 0.698549 0.688395 0.699075
          0.694208 0.697245 0.704572 0.712122 0.700465 0.691654
          0.718588 0.702537 0.693964 0.699285 0.698666 0.703667
          0.692699 0.689356 0.708545 0.702184 0.693355 0.688484
          0.69265 0.685717 0.68542 0.687419 0.6968 0.699682
          0.715814 0.696023 0.675354 0.695648 0.188378 0.68034
          0.698252 0.711261 0.703324 0.698053 0.709697 0.698036
          0.709702 0.698077 0.697083 0.713327 0.701148 0.693052
          0.694855 0.69504 0.700737 0.705922 0.687218 0.711315
          0.694254 0.697195 0.691965 0.69961 0.693958 0.694994
          0.700041 0.694939 0.700562 0.701857 0.67788 0.699341
          0.68933 0.695281 0.189085 0.688436 0.713539 0.694006
          0.68097 0.702818 0.697502 0.716667 0.691642 0.701036
          0.706687 0.689134 0.701626 0.691075 0.694975 0.715331
          0.699334 0.700439 0.701869 0.701135 0.696613 0.69997
          0.707705 0.700714 0.708402 0.723112 0.708572 0.709784
          0.703297 0.70748 0.711524 0.711185 0.703124 0.712694
          0.186404 0.678178 0.692412 0.700284 0.693548 0.697106
          0.70835 0.688387 0.696519 0.704281 0.717698 0.693792
          0.695342 0.697866 0.703668 0.687383 0.698343 0.697916
          0.704338 0.696917 0.685875 0.691663 0.701023 0.693458
          0.682558 0.696345 0.688228 0.684492 0.687494 0.687355
          0.690309 0.700601 0.678028 0.688033 0.178549 0.682961
          0.696391 0.689899 0.702381 0.702552 0.698667 0.700909
          0.694661 0.704822 0.701112 0.687489 0.709172 0.697423
          0.694709 0.704075 0.701271 0.69983 0.708435 0.690644
          0.701036 0.699757 0.700951 0.706668 0.709156 0.712012
          0.707859 0.697387 0.708986 0.715523 0.691654 0.704646
          0.714409 0.702903 0.186957 0.651409 0.686431 0.695531
          0.694512 0.691133 0.68992 0.70525 0.695884 0.699043
          0.689866 0.698927 0.682049 0.705906 0.695136 0.700565
          0.698033 0.71584 0.70373 0.697266 0.701785 0.712978
          0.713931 0.712098 0.715797 0.709879 0.715147 0.72754
          0.720922 0.710851 0.698039 0.730064 0.713514 0.707961
          0.190328 0.660958 0.682218 0.680153 0.687493 0.699293
          0.706574 0.692957 0.678962 0.705622 0.721522 0.700809
          0.690727 0.698906 0.699753 0.705658 0.698572 0.714351
          0.691043 0.702379 0.70543 0.704389 0.718085 0.706315
          0.707956 0.714117 0.708665 0.707578 0.702378 0.723112
          0.705442 0.710789 0.717426 0.71049 0.188833 0.670275
          0.681038 0.687377 0.691709 0.678032 0.694695 0.679642
          0.700911 0.71801 0.695945 0.697184 0.702438 0.698171
          0.698875 0.704855 0.703725 0.710097 0.706196 0.687559
          0.712385 0.711735 0.715209 0.703069 0.690335 0.696628
          0.696934 0.709007 0.705693 0.71919 0.699334 0.713651
          0.712563 0.714341 0.201854 0.696765 0.703064 0.689913
          0.691738 0.703894 0.698607 0.691615 0.696909 0.701355
          0.699247 0.672931 0.693234 0.707139 0.680077 0.711829
          0.705209 0.69948 0.709141 0.705079 0.704047 0.703846
          0.720692 0.708124 0.687693 0.704873 0.708572 0.714531
          0.710761 0.710028 0.7201 0.714149 0.697668 0.717583
          0.176624 0.668291 0.687736 0.697425 0.68749 0.694041
          0.698544 0.692323 0.68207 0.684462 0.705169 0.702502
          0.706858 0.70278 0.692871 0.702417 0.694125 0.697148
          0.697805 0.697508 0.692695 0.687736 0.678227 0.696225
          0.702537 0.690957 0.694734 0.694638 0.684062 0.703
          0.690198 0.693611 0.694831 0.697841 0.197775 0.673849
          0.698246 0.699163 0.688255 0.695772 0.698696 0.70159
          0.697465 0.71493 0.697279 0.699786 0.710304 0.677661
          0.714922 0.700427 0.69922 0.704786 0.692168 0.70838
          0.697765 0.699125 0.69572 0.695038 0.68889 0.694756
          0.704481 0.710057 0.701396 0.679583 0.687444 0.692097
          0.690144 0.688788 0.197249 0.669375 0.698616 0.686246
          0.677113 0.68298 0.676518 0.699262 0.707707 0.697159
          0.684913 0.696097 0.689147 0.700612 0.716335 0.702643
          0.691212 0.695442 0.697755 0.70662 0.700055 0.683676
          0.694834 0.688331 0.696156 0.697642 0.689976 0.695509
          0.706445 0.713416 0.68092 0.694455 0.705577 0.704331
          0.192118 0.654177 0.686561 0.692503 0.691028 0.681378
          0.695777 0.701997 0.696406 0.682132 0.694572 0.704341
          0.706296 0.698654 0.703333 0.713738 0.680429 0.68899
          0.711241 0.700895 0.688834 0.725251 0.710365 0.724322
          0.719766 0.723166 0.713417 0.704022 0.704754 0.699893
          0.699885 0.708282 0.718997 0.69028 0.192106 0.656485
          0.687654 0.699247 0.692143 0.67555 0.673895 0.693952
          0.704852 0.69155 0.702975 0.705788 0.700179 0.707935
          0.700109 0.704052 0.696371 0.694885 0.699948 0.700132
          0.695973 0.703366 0.698 0.695255 0.708728 0.682532
          0.698443 0.696649 0.690034 0.684511 0.691759 0.705182
          0.698284 0.69989 0.198763 0.679052 0.698908 0.681951
          0.683346 0.696731 0.705224 0.690385 0.681455 0.700277
          0.722969 0.686882 0.705771 0.696664 0.688125 0.703539
          0.694938 0.698901 0.707403 0.708096 0.703363 0.689758
          0.697355 0.706922 0.68092 0.694828 0.700262 0.685207
          0.677361 0.694926 0.684987 0.690591 0.698655 0.688885
          0.190815 0.703891 0.708556 0.726598 0.689423 0.694231
          0.69599 0.705628 0.701986 0.710977 0.689361 0.693408
          0.702421 0.702684 0.681276 0.693037 0.696655 0.70859
          0.710622 0.692906 0.705482 0.698128 0.702257 0.706371
          0.715971 0.710162 0.710834 0.709209 0.697392 0.708828
          0.720284 0.708506 0.709127 0.718361 0.196878 0.690671
          0.698189 0.701837 0.701373 0.697021 0.696111 0.690906
          0.693688 0.70732 0.691039 0.687003 0.701367 0.68937
          0.682703 0.697987 0.710634 0.702499 0.706848 0.70361
          0.69863 0.701863 0.705565 0.701115 0.713426 0.69563
          0.695085 0.698676 0.706609 0.703348 0.721134 0.711339
          0.713227 0.698408 0.188895 0.652471 0.693676 0.693547
          0.686888 0.676093 0.682614 0.688602 0.701073 0.701641
          0.698813 0.693016 0.712642 0.69219 0.704789 0.707027
          0.691103 0.703257 0.70294 0.694792 0.696445 0.694517
          0.692472 0.695564 0.699514 0.704613 0.692523 0.70535
          0.697174 0.710311 0.683909 0.71579 0.698711 0.695177
          0.198537 0.693039 0.710218 0.698559 0.707837 0.705602
          0.703469 0.70161 0.700264 0.677577 0.699237 0.706121
          0.70539 0.70547 0.698211 0.698194 0.700677 0.702708
          0.702157 0.710938 0.700215 0.711587 0.700564 0.703554
          0.707009 0.703782 0.693343 0.702066 0.710134 0.705507
          0.706942 0.704008 0.714945 0.703615 0.193581 0.665725
          0.679518 0.685598 0.6869 0.681192 0.69111 0.694055
          0.706537 0.716976 0.705825 0.69903 0.69996 0.70033
          0.707612 0.688773 0.710991 0.702249 0.705837 0.70126
          0.700343 0.702326 0.682966 0.682281 0.697203 0.683354
          0.686648 0.689194 0.692135 0.690761 0.693402 0.685989
          0.69096 0.698055 0.192287 0.680116 0.700378 0.697977
          0.70658 0.699872 0.693282 0.687532 0.689148 0.691973
          0.721054 0.699401 0.692294 0.696145 0.708933 0.695989
          0.71391 0.695503 0.687827 0.698429 0.691001 0.694983
          0.692286 0.692476 0.696549 0.701812 0.6963 0.691137
          0.68908 0.697812 0.68295 0.68472 0.691967 0.681427
          0.195831 0.69499 0.700138 0.690552 0.698034 0.698676
          0.696886 0.699679 0.700625 0.701809 0.700461 0.705955
          0.694197 0.700692 0.697651 0.690567 0.695952 0.695524
          0.709279 0.694539 0.700864 0.689915 0.684154 0.701853
          0.69042 0.693155 0.696807 0.694891 0.676671 0.686136
          0.682656 0.685699 0.687993 0.698099 0.203869 0.699187
          0.704367 0.692003 0.708644 0.714044 0.683979 0.711497
          0.700414 0.689934 0.714534 0.694535 0.703437 0.714013
          0.696071 0.717522 0.703976 0.700016 0.69983 0.707349
          0.690627 0.68772 0.682475 0.68099 0.68084 0.703244
          0.674307 0.685976 0.691562 0.68759 0.702924 0.677852
          0.689672 0.7074 0.183974 0.663278 0.687455 0.702773
          0.679917 0.685321 0.679971 0.703198 0.697676 0.68491
          0.693979 0.720198 0.706938 0.698065 0.70562 0.699308
          0.694481 0.690817 0.700322 0.704723 0.690416 0.716956
          0.720673 0.707769 0.715242 0.702062 0.709109 0.713604
          0.708885 0.706222 0.700751 0.728851 0.717511 0.701242
          0.19317 0.666299 0.684589 0.690224 0.68576 0.680831
          0.679127 0.715688 0.700429 0.69539 0.695159 0.709917
          0.696182 0.71035 0.702353 0.701308 0.691542 0.691729
          0.702673 0.7011 0.701818 0.693518 0.68834 0.674353
          0.692407 0.689246 0.695707 0.696656 0.691197 0.691471
          0.695105 0.685797 0.695756 0.69593 0.188367 0.675808
          0.693915 0.692725 0.700168 0.682767 0.689464 0.691064
          0.688227 0.697994 0.702846 0.700822 0.695936 0.695051
          0.701455 0.691795 0.693368 0.691644 0.705493 0.689083
          0.709859 0.709418 0.715044 0.708042 0.723855 0.70983
          0.705704 0.699353 0.703007 0.71015 0.727414 0.718751
          0.702481 0.717358 0.193853 0.658119 0.690371 0.696512
          0.705292 0.705644 0.692516 0.714307 0.712685 0.698191
          0.703953 0.701928 0.699789 0.703449 0.707115 0.688088
          0.689036 0.706428 0.699276 0.698474 0.693563 0.69933
          0.703864 0.715714 0.705887 0.696528 0.694314 0.699873
          0.692552 0.701761 0.683208 0.681987 0.690521 0.679301
          0.202194 0.679284 0.698533 0.702048 0.698259 0.698916
          0.699516 0.701335 0.707696 0.699057 0.700649 0.705712
          0.710963 0.705929 0.702115 0.713577 0.689714 0.691063
          0.703682 0.690515 0.705695 0.690966 0.705612 0.69033
          0.695202 0.684958 0.701075 0.678356 0.680358 0.693919
          0.701328 0.688348 0.707447 0.68733 0.20211 0.666757
          0.70192 0.698991 0.689835 0.696792 0.692624 0.706931
          0.702521 0.714998 0.691752 0.706281 0.694382 0.691572
          0.710426 0.695904 0.70857 0.708752 0.700813 0.713115
          0.708695 0.690495 0.690491 0.698159 0.699009 0.69447
          0.712581 0.698639 0.687941 0.705744 0.679186 0.702691
          0.694866 0.685404 0.195361 0.68222 0.712601 0.707227
          0.687715 0.691321 0.700171 0.697866 0.686668 0.699034
          0.691933 0.679876 0.715973 0.706364 0.685824 0.694766
          0.710486 0.708673 0.699503 0.694862 0.706897 0.694524
          0.695084 0.710975 0.705129 0.697702 0.70869 0.703405
          0.713158 0.70872 0.701454 0.685203 0.7212 0.729196
          0.197059 0.677474 0.680726 0.677368 0.68684 0.692229
          0.689513 0.685058 0.698759 0.694237 0.717194 0.70687
          0.70445 0.709429 0.690196 0.709559 0.701988 0.703802
          0.702314 0.690095 0.698952 0.692062 0.686448 0.688663
          0.681266 0.692039 0.690717 0.682237 0.694612 0.692425
          0.679272 0.693074 0.693893 0.690384 0.205421 0.697992
          0.695963 0.704587 0.694652 0.690138 0.703881 0.695333
          0.711082 0.699696 0.709423 0.678741 0.722986 0.712901
          0.689908 0.698961 0.708126 0.718001 0.70437 0.695531
          0.690801 0.690623 0.676686 0.69586 0.696644 0.688576
          0.680464 0.688016 0.684296 0.688315 0.695925 0.692602
          0.701602 0.703404 0.197364 0.662977 0.701975 0.698948
          0.685691 0.694273 0.686278 0.700347 0.706378 0.68566
          0.702766 0.706645 0.700975 0.707292 0.695775 0.719245
          0.686028 0.684853 0.707462 0.703839 0.697879 0.697986
          0.715286 0.699177 0.711037 0.689974 0.700169 0.705133
          0.700138 0.708785 0.689022 0.701181 0.701319 0.690845
          0.189645 0.685775 0.702589 0.697829 0.689822 0.70414
          0.706599 0.711974 0.704532 0.711775 0.689354 0.701566
          0.692106 0.7033 0.713022 0.707839 0.69636 0.700906
          0.707064 0.687556 0.703473 0.711577 0.705776 0.715919
          0.71112 0.707656 0.698692 0.696616 0.710088 0.707472
          0.692627 0.717753 0.715424 0.708292 0.178286 0.655597
          0.686728 0.696469 0.695672 0.695569 0.679103 0.683049
          0.69413 0.709512 0.702807 0.705029 0.692357 0.696155
          0.703098 0.69597 0.713231 0.687075 0.704333 0.692203
          0.712102 0.708486 0.708787 0.708997 0.71108 0.708767
          0.697533 0.704698 0.69588 0.711199 0.705672 0.714497
          0.71121 0.709083 0.188124 0.660932 0.695577 0.692918
          0.690585 0.70322 0.702165 0.70013 0.682874 0.682699
          0.69236 0.697213 0.701795 0.703995 0.702364 0.694697
          0.694246 0.692833 0.702966 0.697893 0.710456 0.716485
          0.724809 0.709984 0.714649 0.712917 0.702683 0.705346
          0.702767 0.720335 0.700003 0.703253 0.709503 0.703938
          0.1881 0.681826 0.698292 0.693893 0.716225 0.700239
          0.695694 0.690968 0.694459 0.698019 0.694248 0.694632
          0.696241 0.693495 0.702952 0.695297 0.687979 0.702326
          0.697135 0.692423 0.70498 0.706503 0.695843 0.692915
          0.701473 0.70887 0.715451 0.728099 0.700383 0.706169
          0.701559 0.713788 0.715319 0.70978 0.195459 0.668607
          0.686505 0.713137 0.696134 0.694415 0.697434 0.695197
          0.701738 0.701389 0.692222 0.705462 0.703445 0.699878
          0.691262 0.691313 0.687387 0.701272 0.703988 0.700714
          0.720753 0.702754 0.695973 0.704057 0.711471 0.713734
          0.699745 0.712831 0.711799 0.713853 0.694726 0.696159
          0.704491 0.708256 0.204051 0.669952 0.683424 0.680611
          0.684016 0.692432 0.691678 0.689739 0.698947 0.698445
          0.707112 0.686884 0.71386 0.701742 0.679307 0.707415
          0.697879 0.696316 0.703923 0.699721 0.70492 0.705435
          0.706584 0.707531 0.701279 0.699259 0.696736 0.703083
          0.700743 0.683595 0.718705 0.700549 0.700392 0.71237
          0.192499 0.685277 0.706083 0.699959 0.694552 0.705645
          0.692978 0.716159 0.691737 0.687122 0.695285 0.718895
          0.694503 0.723253 0.697419 0.695007 0.697795 0.698214
          0.701738 0.690742 0.710181 0.709533 0.708293 0.692927
          0.714239 0.700924 0.723589 0.720088 0.697078 0.708424
          0.691653 0.708984 0.710534 0.700473 0.197934 0.664075
          0.681222 0.69334 0.690787 0.709792 0.694288 0.681578
          0.701946 0.689456 0.696862 0.700368 0.695565 0.706986
          0.692194 0.695516 0.714171 0.679734 0.712493 0.699017
          0.697088 0.704284 0.721295 0.697786 0.7004 0.707638
          0.715945 0.704845 0.71775 0.700836 0.704842 0.696931
          0.703581 0.707618 0.200232 0.689375 0.692985 0.696191
          0.68256 0.718343 0.703614 0.702626 0.688793 0.707471
          0.699538 0.725698 0.698685 0.694402 0.686456 0.702204
          0.697611 0.702414 0.703083 0.699116 0.687567 0.704315
          0.719897 0.70586 0.700928 0.707267 0.702098 0.697359
          0.700887 0.708527 0.712055 0.713572 0.715748 0.72512
          0.188177 0.663326 0.702308 0.693614 0.69995 0.688391
          0.68815 0.703513 0.717917 0.699677 0.698829 0.695179
          0.702655 0.694255 0.693514 0.704532 0.685918 0.687702
          0.693306 0.707829 0.688322 0.703234 0.698118 0.708114
          0.706486 0.701212 0.69194 0.703044 0.700298 0.713489
          0.674899 0.702635 0.70295 0.690113 0.19533 0.665326
          0.709049 0.698839 0.705811 0.721287 0.695092 0.705274