<?xml version="1.0"?>
<VTKFile type="PolyData" version="0.1" byte_order="LittleEndian" header_type="UInt32" compressor="vtkZLibDataCompressor">
  <PolyData>
    <Piece NumberOfPoints="8160" NumberOfVerts="0" NumberOfLines="0" NumberOfStrips="0" NumberOfPolys="0">
      <PointData Scalars="Calcium Concentration">
        <DataArray type="Float32" Name="Calcium Concentration" format="ascii" RangeMin="0.25720399618148804" RangeMax="0.7358769774436951">
          0.273336 0.69378 0.698071 0.700912 0.711565 0.704947
          0.683993 0.691696 0.689405 0.701315 0.70019 0.712297
          0.690759 0.696989 0.699065 0.705161 0.693881 0.716073
          0.709992 0.687 0.703374 0.687274 0.696616 0.676577
          0.678428 0.689052 0.687712 0.703095 0.698367 0.686359
          0.703789 0.696396 0.692859 0.696464 0.286768 0.697258
          0.706231 0.699043 0.708112 0.707525 0.693122 0.689856
          0.719014 0.69913 0.701517 0.701752 0.701284 0.699371
          0.696414 0.701376 0.697616 0.712464 0.705915 0.699688
          0.69709 0.686601 0.686855 0.676807 0.684757 0.702167
          0.687408 0.684963 0.693515 0.688966 0.708226 0.687577
          0.693873 0.686958 0.278853 0.669136 0.69172 0.682679
          0.685955 0.682735 0.688756 0.690999 0.685833 0.715284
          0.684982 0.700953 0.707433 0.694848 0.705837 0.703646
          0.710853 0.722059 0.722191 0.695818 0.708786 0.714732
          0.706933 0.719316 0.707426 0.706848 0.708204 0.716398
          0.704668 0.711361 0.703747 0.710892 0.70179 0.710554
          0.276489 0.687333 0.694618 0.696606 0.704965 0.692633
          0.711251 0.69404 0.715289 0.706711 0.693484 0.695851
          0.695748 0.703516 0.691563 0.705272 0.698922 0.698641
          0.711289 0.698845 0.704305 0.701677 0.693259 0.691808
          0.690322 0.695805 0.703021 0.699497 0.711819 0.701614
          0.693426 0.701056 0.689119 0.694146 0.270685 0.671293
          0.68616 0.682149 0.677818 0.692774 0.691464 0.680236
          0.711528 0.706558 0.707139 0.690895 0.698562 0.707272
          0.682795 0.714 0.699792 0.701444 0.718066 0.693588
          0.702239 0.684097 0.700655 0.680248 0.687838 0.689926
          0.693575 0.691415 0.695693 0.698551 0.681736 0.690671
          0.712552 0.686233 0.288107 0.693863 0.703389 0.707699
          0.700538 0.708934 0.693123 0.704035 0.675911 0.700718
          0.69772 0.699107 0.700257 0.690682 0.701784 0.704965
          0.698214 0.696922 0.706814 0.703118 0.697012 0.712404
          0.699571 0.705397 0.709849 0.725198 0.703794 0.693034
          0.691425 0.699956 0.716089 0.707085 0.695156 0.708552
          0.271657 0.680129 0.697586 0.688069 0.677891 0.691687
          0.675713 0.688005 0.695574 0.721327 0.686345 0.701292
          0.705813 0.699407 0.696904 0.688479 0.701828 0.719689
          0.712612 0.697863 0.694452 0.705197 0.702462 0.704809
          0.706987 0.71426 0.72141 0.715512 0.719403 0.712624
          0.707008 0.71941 0.702782 0.704361 0.272391 0.68676
          0.694415 0.70009 0.688969 0.702879 0.687013 0.676652
          0.684211 0.700355 0.719812 0.708701 0.685786 0.717457
          0.695989 0.711754 0.700756 0.69233 0.708346 0.691083
          0.690854 0.699179 0.689338 0.683535 0.696252 0.688677
          0.700649 0.68896 0.691121 0.679109 0.696894 0.685454
          0.671934 0.689373 0.267919 0.675567 0.674541 0.679036
          0.674403 0.686678 0.697039 0.698793 0.690376 0.704087
          0.706418 0.697982 0.697 0.711656 0.691416 0.713395
          0.703009 0.696478 0.708895 0.691422 0.704675 0.716735
          0.696988 0.704012 0.702616 0.722967 0.700889 0.7065
          0.709443 0.712969 0.718621 0.708656 0.710844 0.711864
          0.280939 0.687628 0.695389 0.69939 0.700929 0.712302
          0.695386 0.696501 0.713237 0.707468 0.704821 0.693538
          0.695459 0.70459 0.706989 0.696963 0.700146 0.701493
          0.72686 0.688733 0.706248 0.711408 0.696673 0.706643
          0.717681 0.704142 0.696143 0.713937 0.71243 0.697358
          0.709625 0.698411 0.708838 0.707599 0.279705 0.692703
          0.704973 0.710995 0.688749 0.714696 0.694397 0.698706
          0.704437 0.705645 0.699941 0.697789 0.695584 0.692475
          0.696697 0.70654 0.702802 0.693238 0.711807 0.711687
          0.713258 0.713862 0.70402 0.705524 0.7076 0.691943
          0.701695 0.698332 0.719884 0.70538 0.7197 0.710304
          0.706063 0.707789 0.268898 0.67462 0.685487 0.697009
          0.68469 0.693832 0.681233 0.696761 0.701131 0.705678
          0.706905 0.707969 0.698842 0.691918 0.695984 0.70858
          0.70647 0.69559 0.720412 0.691891 0.6846 0.694274
          0.706199 0.686382 0.680687 0.70296 0.69075 0.694974
          0.678154 0.687156 0.694059 0.701032 0.700885 0.696614
          0.277453 0.693716 0.708165 0.696982 0.69066 0.697764
          0.708145 0.695349 0.705599 0.703876 0.699325 0.690639
          0.706644 0.696363 0.699536 0.703192 0.703994 0.700273
          0.716019 0.701063 0.69325 0.691822 0.697988 0.689434
          0.68863 0.69765 0.691755 0.687586 0.70556 0.693518
          0.690008 0.682948 0.702464 0.696127 0.285622 0.684686
          0.686675 0.707687 0.713263 0.684311 0.700956 0.692688
          0.699841 0.714349 0.700274 0.702692 0.689461 0.711045
          0.705035 0.699303 0.698295 0.702973 0.721385 0.700743
          0.693583 0.690059 0.675138 0.681532 0.672786 0.694482
          0.689949 0.699092 0.693792 0.685145 0.700816 0.684352
          0.677306 0.692327 0.269524 0.662342 0.693183 0.701721
          0.698301 0.688586 0.686823 0.693661 0.68382 0.700296
          0.697894 0.701555 0.691647 0.702315 0.689653 0.682213
          0.704576 0.688876 0.702689 0.693584 0.708734 0.716614
          0.715611 0.708116 0.704859 0.713821 0.710282 0.700794
          0.711782 0.721853 0.704329 0.716588 0.711922 0.70158
          0.273297 0.700933 0.694318 0.691339 0.710157 0.706854
          0.686348 0.693149 0.704239 0.704115 0.696267 0.701921
          0.699826 0.702906 0.695339 0.702597 0.697352 0.697988
          0.702577 0.701793 0.689324 0.678452 0.702313 0.687171
          0.691945 0.695755 0.693802 0.686621 0.687599 0.69086
          0.691857 0.689052 0.686751 0.693067 0.263865 0.67127
          0.692338 0.687855 0.687499 0.689961 0.693101 0.688843
          0.692185 0.687086 0.705781 0.704771 0.704159 0.705742
          0.706377 0.699341 0.694946 0.710186 0.705254 0.698381
          0.699816 0.695355 0.697252 0.691571 0.691565 0.688813
          0.690556 0.707914 0.701769 0.701097 0.713952 0.705309
          0.688422 0.694882 0.267041 0.677768 0.683693 0.670085
          0.689559 0.698094 0.689956 0.710429 0.689123 0.704996
          0.698094 0.714099 0.69605 0.696549 0.704677 0.698
          0.695879 0.703357 0.707775 0.6988 0.691769 0.703402
          0.710241 0.711485 0.70324 0.730044 0.701273 0.697977
          0.700495 0.708036 0.702757 0.700457 0.723951 0.726144
          0.266384 0.673762 0.693148 0.68957 0.693431 0.679972
          0.687552 0.692219 0.702184 0.713084 0.690987 0.687538
          0.699623 0.692912 0.699033 0.701011 0.696998 0.710712
          0.700025 0.70769 0.697621 0.695242 0.688039 0.687249
          0.687768 0.701909 0.694554 0.681852 0.688024 0.68947
          0.702164 0.679257 0.698298 0.701059 0.287177 0.6826
          0.696471 0.713792 0.69472 0.691079 0.704817 0.702401
          0.697803 0.708901 0.70367 0.702113 0.691814 0.688912
          0.698703 0.700551 0.69813 0.696658 0.716841 0.696669
          0.687863 0.69754 0.681929 0.67798 0.699185 0.691307
          0.685291 0.696788 0.698455 0.687187 0.683901 0.695006
          0.680484 0.696205 0.265796 0.695996 0.687419 0.68685
          0.69464 0.697587 0.702608 0.710382 0.6912 0.69439
          0.708185 0.691092 0.696547 0.706326 0.681904 0.694087
          0.709448 0.702909 0.720308 0.693778 0.690901 0.701539
          0.679982 0.68297 0.692581 0.69619 0.689588 0.694067
          0.704178 0.69914 0.69767 0.690752 0.697893 0.70329
          0.280489 0.676405 0.706366 0.687859 0.699116 0.707043
          0.702836 0.702317 0.690652 0.708805 0.694757 0.690814
          0.710546 0.687294 0.703183 0.68832 0.698787 0.704566
          0.699607 0.707906 0.698624 0.710328 0.708942 0.709906
          0.702225 0.71044 0.721442 0.695019 0.717268 0.708417
          0.721922 0.699831 0.703308 0.703628 0.275814 0.706286
          0.677647 0.711787 0.704324 0.701272 0.705398 0.712913
          0.688884 0.70093 0.709759 0.693506 0.700873 0.688954
          0.689753 0.700975 0.699891 0.706304 0.711744 0.701392
          0.714541 0.712697 0.703674 0.708408 0.713467 0.707578
          0.702363 0.705464 0.6893 0.704317 0.716479 0.71334
          0.717803 0.71659 0.279683 0.69941 0.702688 0.697129
          0.705312 0.69915 0.709829 0.700783 0.694264 0.696703
          0.694868 0.696297 0.695254 0.71094 0.693445 0.696581
          0.704935 0.714783 0.711168 0.690963 0.706533 0.697863
          0.710002 0.708753 0.707166 0.707395 0.713758 0.715013
          0.719247 0.700655 0.70341 0.70504 0.699403 0.719802
          0.27192 0.688468 0.696562 0.698595 0.708058 0.686293
          0.71323 0.697955 0.708802 0.702594 0.705496 0.699031
          0.692009 0.706419 0.700814 0.694452 0.707492 0.687294
          0.71058 0.694865 0.700211 0.686042 0.667691 0.697686
          0.683527 0.692024 0.695502 0.69243 0.704938 0.698186
          0.68552 0.685593 0.682602 0.692311 0.280292 0.674289
          0.702731 0.711513 0.700185 0.70548 0.701522 0.704097
          0.689782 0.704276 0.690799 0.703238 0.706898 0.703751
          0.703873 0.70262 0.695877 0.694829 0.697227 0.698094
          0.703917 0.694494 0.690348 0.686631 0.690179 0.691508
          0.70468 0.699869 0.707366 0.704249 0.686324 0.69524
          0.701116 0.690693 0.284926 0.692323 0.680122 0.701363
          0.705683 0.702028 0.706726 0.697201 0.691543 0.686276
          0.71879 0.697733 0.69875 0.705778 0.693994 0.694272
          0.706991 0.714315 0.690022 0.696481 0.699821 0.688327
          0.677242 0.700171 0.692953 0.694981 0.684912 0.693992
          0.677198 0.681807 0.692847 0.678986 0.688469 0.695503
          0.280353 0.685514 0.687512 0.694202 0.686311 0.695033
          0.691082 0.693915 0.690556 0.703878 0.696011 0.676458
          0.693607 0.681994 0.685969 0.710365 0.701281 0.68539
          0.717049 0.693846 0.696163 0.696876 0.688845 0.69154
          0.682758 0.693841 0.694031 0.685192 0.681956 0.683217
          0.704523 0.699776 0.675581 0.708295 0.267602 0.685242
          0.693976 0.701568 0.704545 0.68791 0.706168 0.708331
          0.685054 0.722799 0.686807 0.684433 0.709763 0.690741
          0.70582 0.700645 0.698738 0.700288 0.698885 0.711635
          0.698349 0.692485 0.67714 0.683772 0.686326 0.696457
          0.687023 0.691928 0.714201 0.698276 0.68547 0.707132
          0.700201 0.684121 0.273358 0.676442 0.695689 0.694005
          0.701202 0.688654 0.703023 0.689575 0.700509 0.709558
          0.703748 0.694169 0.697988 0.707726 0.690878 0.720047
          0.695314 0.68895 0.726152 0.688457 0.688656 0.69329
          0.692393 0.687822 0.689982 0.697924 0.693115 0.703392
          0.702411 0.691968 0.692015 0.676538 0.680633 0.690116
          0.278759 0.665958 0.695139 0.692639 0.675206 0.692259
          0.686258 0.700358 0.686086 0.693104 0.698073 0.700723
          0.703538 0.707998 0.700886 0.692922 0.695675 0.693475
          0.690478 0.697626 0.691325 0.715336 0.70985 0.720547
          0.7111 0.715183 0.719056 0.697772 0.710423 0.710769
          0.695245 0.704192 0.700522 0.714109 0.274103 0.681287
          0.702944 0.693866 0.693293 0.69697 0.697342 0.693287
          0.681888 0.68015 0.696777 0.694471 0.68647 0.707116
          0.697531 0.70839 0.700629 0.706684 0.70665 0.699951
          0.698758 0.710432 0.72043 0.705768 0.699201 0.718031
          0.702951 0.713177 0.71447 0.70834 0.708078 0.709004
          0.709286 0.709128 0.275665 0.679119 0.686413 0.68899
          0.712273 0.702871 0.711881 0.688497 0.698682 0.710157
          0.692502 0.684956 0.716651 0.700272 0.690203 0.693314
          0.687515 0.69822 0.723602 0.688945 0.7064 0.701965
          0.707036 0.708737 0.704049 0.707024 0.711288 0.706716
          0.704194 0.71636 0.721356 0.711102 0.710757 0.711883
          0.275977 0.664317 0.691925 0.700614 0.681818 0.685794
          0.689835 0.684738 0.684585 0.691644 0.710542 0.708279
          0.693839 0.702838 0.698258 0.714902 0.710831 0.701585
          0.710175 0.69041 0.701135 0.691702 0.686439 0.714087
          0.70637 0.681934 0.697972 0.699833 0.689114 0.686728
          0.696073 0.691313 0.695099 0.698046 0.291768 0.681946
          0.690911 0.686942 0.67699 0.695586 0.68241 0.683965
          0.698346 0.697567 0.702161 0.703744 0.699354 0.701613
          0.700292 0.704046 0.708862 0.697073 0.695962 0.716083
          0.697696 0.705064 0.691685 0.686742 0.677929 0.687206
          0.708428 0.698543 0.691259 0.700633 0.692073 0.69114
          0.689236 0.693597 0.272226 0.661301 0.686131 0.702338
          0.688163 0.693844 0.686358 0.695103 0.695076 0.692063
          0.689244 0.684823 0.703262 0.695763 0.708405 0.705318
          0.700059 0.702666 0.708213 0.709071 0.691306 0.699091
          0.693974 0.698871 0.711723 0.700988 0.70253 0.701977
          0.702352 0.698 0.694836 0.694971 0.685972 0.686114
          0.268427 0.683236 0.692902 0.702853 0.687595 0.707918
          0.703115 0.699883 0.697596 0.699764 0.692717 0.704752
          0.698421 0.692573 0.684446 0.706149 0.699457 0.708205
          0.702612 0.701556 0.697641 0.696049 0.700122 0.685918
          0.68906 0.689874 0.684435 0.690647 0.714156 0.697898
          0.689111 0.681208 0.689022 0.681614 0.276332 0.660274
          0.685536 0.689148 0.689044 0.690378 0.684027 0.692
          0.700144 0.696659 0.689861 0.693763 0.696226 0.691528
          0.686091 0.701035 0.688085 0.700889 0.704066 0.698975
          0.698342 0.694956 0.713384 0.705089 0.706002 0.71338
          0.712461 0.71442 0.716368 0.715368 0.693 0.717505
          0.714631 0.705805 0.275769 0.691679 0.68799 0.693282
          0.696989 0.697313 0.691667 0.689484 0.698589 0.70681
          0.685053 0.700117 0.703014 0.694996 0.698801 0.706072
          0.699849 0.705547 0.716606 0.69908 0.706762 0.695241
          0.685992 0.706546 0.706443 0.694759 0.712951 0.701297
          0.681441 0.698717 0.690069 0.687011 0.691046 0.689229
          0.270391 0.695974 0.696809 0.697105 0.697759 0.700945
          0.702414 0.694189 0.703691 0.710401 0.700324 0.691418
          0.708007 0.698276 0.704486 0.693968 0.695259 0.69953
          0.706991 0.694986 0.703559 0.703703 0.698256 0.687058
          0.701247 0.688271 0.685969 0.682198 0.697444 0.695918
          0.713607 0.698536 0.681299 0.694349 0.273211 0.679836
          0.696573 0.706204 0.702642 0.696492 0.702661 0.696395
          0.71365 0.696701 0.690218 0.713137 0.695462 0.688675
          0.69544 0.692425 0.700525 0.701413 0.685852 0.714624
          0.697226 0.703023 0.698775 0.705363 0.689471 0.693751
          0.698092 0.703327 0.702353 0.696261 0.681916 0.695608
          0.685467 0.696141 0.278446 0.694042 0.712939 0.691243
          0.682006 0.706227 0.697878 0.715733 0.689616 0.695632
          0.703881 0.690616 0.706792 0.68883 0.688306 0.710936
          0.699778 0.696703 0.718483 0.704632 0.700988 0.705848
          0.704728 0.698789 0.703309 0.717577 0.710822 0.709539
          0.713822 0.709944 0.711666 0.703892 0.70591 0.70696
          0.267345 0.685478 0.700799 0.696399 0.694262 0.697487
          0.712624 0.686746 0.698935 0.696312 0.712769 0.698322
          0.692269 0.705419 0.703045 0.689429 0.700202 0.69856
          0.723993 0.697349 0.682828 0.68956 0.697288 0.692835
          0.686845 0.693544 0.684887 0.686983 0.687739 0.694894
          0.693476 0.698454 0.683418 0.688207 0.268379 0.690957
          0.706303 0.690072 0.696552 0.701812 0.700682 0.70069
          0.695234 0.70019 0.70438 0.691156 0.70758 0.692161
          0.69009 0.705459 0.702787 0.700089 0.71839 0.695616
          0.706129 0.709446 0.696843 0.703838 0.707243 0.715777
          0.708329 0.698282 0.70931 0.714372 0.694963 0.70781
          0.713706 0.704071 0.271622 0.655689 0.690393 0.696348
          0.697188 0.688878 0.689786 0.700407 0.701777 0.697017
          0.684477 0.698915 0.679302 0.703073 0.694189 0.696937
          0.698787 0.711568 0.705215 0.701008 0.710782 0.703583
          0.713317 0.709812 0.714997 0.711979 0.716708 0.722875
          0.721417 0.708892 0.7041 0.725217 0.709706 0.704607
          0.267202 0.660237 0.683097 0.676317 0.686194 0.695542
          0.705714 0.690679 0.68227 0.702995 0.718265 0.697402
          0.701445 0.691643 0.694447 0.703144 0.702742 0.712163
          0.697824 0.696926 0.704193 0.699854 0.717178 0.703277
          0.715614 0.711282 0.701903 0.704599 0.707459 0.720979
          0.704869 0.708704 0.714996 0.712391 0.267579 0.673391
          0.6884 0.687342 0.69524 0.679813 0.693641 0.677343
          0.695408 0.713289 0.700526 0.695685 0.698274 0.707604
          0.695224 0.706001 0.704436 0.710475 0.714712 0.693832
          0.712092 0.711486 0.721683 0.705985 0.691781 0.70665
          0.693702 0.703974 0.706544 0.719622 0.692388 0.712949
          0.708609 0.710349 0.281815 0.699105 0.704158 0.699492
          0.694571 0.708443 0.693358 0.698684 0.700867 0.693919
          0.703133 0.677827 0.690486 0.718513 0.685405 0.70814
          0.700599 0.703175 0.711493 0.707518 0.701377 0.704884
          0.706432 0.706827 0.6932 0.704411 0.707093 0.714257
          0.712913 0.704745 0.714702 0.704692 0.701724 0.721977
          0.257204 0.671912 0.69176 0.697834 0.685935 0.68812
          0.698932 0.688258 0.686773 0.683318 0.704334 0.702262
          0.707648 0.698993 0.703597 0.703504 0.688109 0.692216
          0.70731 0.70541 0.688529 0.690116 0.68212 0.693285
          0.707531 0.692093 0.695403 0.692166 0.684833 0.702687
          0.688323 0.696679 0.695823 0.688998 0.28777 0.67094
          0.700203 0.695611 0.688186 0.693012 0.698733 0.695522
          0.688907 0.714477 0.696105 0.701459 0.716207 0.675501
          0.714366 0.700158 0.695753 0.705706 0.691976 0.719964
          0.694574 0.697336 0.700381 0.699447 0.694232 0.701182
          0.704026 0.708579 0.700997 0.681392 0.695186 0.700554
          0.684649 0.690536 0.282122 0.670513 0.695538 0.68658
          0.665988 0.687428 0.687825 0.708384 0.713311 0.692042
          0.687521 0.693129 0.689047 0.700782 0.713445 0.70948
          0.686954 0.703562 0.696263 0.712964 0.69854 0.689773
          0.698326 0.687959 0.695258 0.688919 0.691451 0.690727
          0.699807 0.711198 0.678933 0.693569 0.697203 0.705671
          0.274436 0.655969 0.686465 0.695563 0.694076 0.682759
          0.694562 0.699709 0.691543 0.68729 0.695387 0.700139
          0.703676 0.695225 0.69929 0.709483 0.682068 0.685575
          0.70787 0.702437 0.701766 0.720939 0.714494 0.722579
          0.720149 0.724846 0.711371 0.701604 0.718738 0.700042
          0.702035 0.708948 0.717755 0.686011 0.281347 0.664124
          0.688251 0.700993 0.692023 0.679261 0.676069 0.689243
          0.706032 0.694643 0.702459 0.710374 0.698745 0.704477
          0.70364 0.701182 0.691566 0.690322 0.698469 0.701824
          0.700133 0.708253 0.698101 0.697794 0.699696 0.687517
          0.693031 0.697309 0.695528 0.68868 0.687535 0.697031
          0.695097 0.690468 0.27774 0.686047 0.697614 0.677236
          0.688015 0.690152 0.698944 0.686372 0.677202 0.703553
          0.715895 0.683635 0.70105 0.700924 0.688742 0.701257
          0.695628 0.704811 0.713474 0.713836 0.70864 0.689508
          0.696008 0.705748 0.678824 0.69363 0.702528 0.693086
          0.68076 0.692029 0.683876 0.681215 0.697177 0.695967
          0.274582 0.712659 0.70534 0.724215 0.692865 0.687745
          0.691397 0.703137 0.695964 0.711498 0.693091 0.702202
          0.70022 0.701967 0.680843 0.690466 0.689651 0.707226
          0.723259 0.692462 0.706746 0.7044 0.703802 0.707115
          0.715069 0.719483 0.718074 0.708219 0.701792 0.709019
          0.718769 0.708896 0.709202 0.715318 0.274375 0.695955
          0.695152 0.701704 0.697889 0.697637 0.693155 0.692389
          0.69818 0.698683 0.697786 0.687208 0.706946 0.703809
          0.687287 0.694591 0.707152 0.69984 0.718449 0.704848
          0.691755 0.703427 0.7029 0.707897 0.714672 0.689122
          0.701424 0.696802 0.707215 0.693329 0.724853 0.714748
          0.713051 0.704073 0.269024 0.656555 0.696958 0.690643
          0.685072 0.683458 0.689322 0.694049 0.704271 0.704887
          0.692032 0.690376 0.710638 0.697299 0.698427 0.698363
          0.689161 0.704373 0.702717 0.699354 0.700475 0.701116
          0.689992 0.703694 0.697757 0.701867 0.699354 0.708011
          0.692242 0.71221 0.684824 0.712843 0.700681 0.692167
          0.286666 0.694085 0.706976 0.695308 0.706482 0.708337
          0.698878 0.701293 0.698514 0.674028 0.691963 0.708559
          0.709877 0.706243 0.702241 0.698555 0.700256 0.702318
          0.705894 0.7145 0.703427 0.711417 0.704307 0.704941
          0.707477 0.706839 0.694555 0.702028 0.703053 0.715907
          0.705835 0.699668 0.712546 0.708445 0.274969 0.666034
          0.682796 0.686199 0.67803 0.678762 0.688868 0.703744
          0.703277 0.710904 0.70495 0.68986 0.709016 0.707424
          0.711831 0.68499 0.701792 0.705276 0.710432 0.710104
          0.700405 0.700252 0.680484 0.683175 0.695641 0.682055
          0.687159 0.691392 0.686136 0.688562 0.688925 0.683135
          0.686977 0.698646 0.268773 0.676239 0.70397 0.698004
          0.702146 0.69815 0.699956 0.687924 0.685668 0.695227
          0.719189 0.693892 0.693348 0.697061 0.707715 0.705527
          0.713636 0.698072 0.697098 0.707877 0.692453 0.698187
          0.691744 0.691902 0.697103 0.705276 0.697077 0.688822
          0.689029 0.698129 0.682016 0.689143 0.696965 0.673665
          0.282547 0.694028 0.699978 0.697796 0.703721 0.694957
          0.699687 0.701571 0.707707 0.705161 0.69856 0.710558
          0.691447 0.696905 0.702917 0.692181 0.690968 0.696192
          0.711586 0.7044 0.695408 0.691427 0.679652 0.699705
          0.690248 0.692543 0.695558 0.699513 0.680585 0.688375
          0.678407 0.689828 0.686323 0.700331 0.289475 0.702693
          0.701936 0.687571 0.701732 0.711842 0.695792 0.707745
          0.702206 0.689405 0.718055 0.69365 0.699149 0.706441
          0.693274 0.712998 0.70515 0.705576 0.701792 0.702538
          0.690513 0.680454 0.676501 0.686142 0.680305 0.700942
          0.678374 0.695571 0.695026 0.687949 0.700613 0.675998
          0.694663 0.707983 0.267573 0.667344 0.695055 0.700545
          0.683405 0.680352 0.683064 0.709939 0.698475 0.684013
          0.694723 0.711566 0.707768 0.692766 0.711833 0.706507
          0.691925 0.692205 0.698747 0.701994 0.697481 0.708842
          0.724276 0.706765 0.71438 0.712825 0.713258 0.705829
          0.705556 0.701675 0.702439 0.729895 0.711219 0.699028
          0.278252 0.670003 0.687162 0.690636 0.680619 0.681917
          0.680796 0.711551 0.698752 0.705367 0.688805 0.715902
          0.695054 0.708395 0.707154 0.700622 0.6911 0.698514
          0.700443 0.706251 0.694501 0.698058 0.694015 0.685988
          0.689603 0.691196 0.700096 0.693376 0.694251 0.688969
          0.696009 0.68829 0.693128 0.698128 0.263378 0.672434
          0.685519 0.692234 0.696481 0.6874 0.692801 0.698539
          0.682896 0.687335 0.696879 0.700804 0.698221 0.69238
          0.702564 0.698483 0.700212 0.703748 0.726444 0.689136
          0.70848 0.708421 0.708923 0.710534 0.721976 0.708483
          0.708506 0.690486 0.711828 0.708374 0.727181 0.720996
          0.700107 0.723608 0.281191 0.66482 0.693519 0.693576
          0.702189 0.705056 0.691748 0.711873 0.70909 0.698578
          0.697566 0.712676 0.692594 0.705159 0.707712 0.682477
          0.688777 0.70356 0.695739 0.693191 0.696352 0.692366
          0.701659 0.714959 0.705047 0.690034 0.691929 0.703587
          0.691795 0.698131 0.682285 0.690181 0.68846 0.686275
          0.293523 0.678785 0.702534 0.694507 0.691336 0.700691
          0.704918 0.699218 0.700976 0.703496 0.689527 0.699034
          0.709229 0.700959 0.698384 0.713232 0.695508 0.707432
          0.699693 0.697683 0.704683 0.694449 0.706553 0.702851
          0.70506 0.682181 0.701118 0.687668 0.681457 0.700229
          0.706819 0.68691 0.702349 0.685427 0.289678 0.673995
          0.696223 0.710333 0.695139 0.69539 0.692105 0.709188
          0.698503 0.714814 0.687644 0.710721 0.698762 0.694249
          0.705117 0.693084 0.709191 0.709224 0.699144 0.710508
          0.705892 0.689857 0.690185 0.696495 0.697171 0.691958
          0.708589 0.697052 0.695366 0.70698 0.67531 0.694922
          0.693888 0.683792 0.285869 0.685159 0.703205 0.709852
          0.685719 0.696164 0.690669 0.690886 0.683329 0.690032
          0.691394 0.677974 0.705869 0.703251 0.691658 0.690151
          0.701193 0.71122 0.708873 0.689962 0.702218 0.703026
          0.699594 0.709249 0.700648 0.699879 0.705751 0.702667
          0.71434 0.709297 0.70494 0.682254 0.725048 0.720413
          0.276406 0.679442 0.680311 0.677345 0.685489 0.691339
          0.685646 0.694895 0.707707 0.696746 0.710474 0.702257
          0.698184 0.715485 0.693548 0.715168 0.696337 0.701469
          0.705683 0.697115 0.697394 0.689613 0.688362 0.686911
          0.684523 0.685904 0.686402 0.683281 0.69128 0.6958
          0.677168 0.688409 0.69485 0.686636 0.288669 0.707777
          0.691013 0.700291 0.699266 0.688041 0.70857 0.699736
          0.709246 0.688709 0.706142 0.678801 0.72086 0.708682
          0.69365 0.691694 0.69957 0.716792 0.703846 0.696139
          0.690784 0.682642 0.680278 0.699864 0.695335 0.685049
          0.678403 0.688081 0.683226 0.686512 0.696689 0.688925
          0.701468 0.697581 0.286025 0.665253 0.699536 0.695544
          0.689662 0.689602 0.686642 0.705586 0.69821 0.688391
          0.702657 0.700276 0.708274 0.710056 0.696755 0.721826
          0.68835 0.685616 0.69711 0.703417 0.694583 0.702286
          0.714741 0.691944 0.708806 0.687999 0.700199 0.704038
          0.696355 0.707604 0.690825 0.70299 0.69917 0.688639
          0.281181 0.693356 0.70047 0.703546 0.691475 0.701735
          0.701522 0.708303 0.707487 0.700382 0.690987 0.710271
          0.694712 0.702694 0.711169 0.699033 0.699441 0.702483
          0.705864 0.691697 0.706841 0.717138 0.706316 0.714993
          0.707563 0.704799 0.700875 0.694976 0.711763 0.707605
          0.692425 0.720713 0.720528 0.714066 0.26048 0.65553
          0.685314 0.698558 0.688898 0.692224 0.682494 0.687362
          0.698482 0.704571 0.706129 0.703944 0.701374 0.701847
          0.704576 0.701769 0.713041 0.694462 0.696448 0.693041
          0.71189 0.70538 0.705821 0.709221 0.713021 0.705692
          0.704989 0.705973 0.690959 0.707323 0.706584 0.710327
          0.710917 0.701806 0.278119 0.663674 0.698647 0.695927
          0.690385 0.702775 0.701749 0.698214 0.687087 0.691326
          0.697251 0.695542 0.701346 0.710784 0.698122 0.700808
          0.698792 0.701466 0.704715 0.692684 0.707012 0.714186
          0.715045 0.714042 0.710308 0.712691 0.712915 0.706686
          0.704181 0.714718 0.70747 0.701127 0.711906 0.705204
          0.26731 0.693729 0.691182 0.695011 0.712005 0.698369
          0.700321 0.6961 0.693515 0.701726 0.695437 0.701325
          0.695005 0.694522 0.695219 0.694366 0.695448 0.701712
          0.696252 0.690352 0.709024 0.711063 0.692721 0.697394
          0.706853 0.714972 0.709352 0.734485 0.70189 0.704843
          0.701221 0.709545 0.713103 0.708405 0.28238 0.6792
          0.692571 0.707627 0.706092 0.691559 0.699834 0.699598
          0.702952 0.702981 0.697283 0.704546 0.701357 0.702136
          0.701718 0.690816 0.687573 0.700856 0.707346 0.700459
          0.711795 0.706052 0.697228 0.703354 0.70613 0.716929
          0.707302 0.710892 0.707795 0.707736 0.697099 0.693218
          0.704082 0.710459 0.287755 0.671241 0.687709 0.683625
          0.684991 0.69197 0.691014 0.689829 0.693372 0.700317
          0.703865 0.690645 0.702489 0.705142 0.682989 0.706252
          0.688872 0.696967 0.70887 0.703193 0.711375 0.70457
          0.714784 0.711706 0.701312 0.702972 0.69932 0.706414
          0.705725 0.688118 0.717655 0.704292 0.703505 0.708629
          0.281602 0.687824 0.701327 0.69993 0.693732 0.704711
          0.690399 0.719041 0.700647 0.685499 0.697657 0.716003
          0.689378 0.728917 0.697752 0.695498 0.690932 0.707442
          0.705094 0.692441 0.715629 0.706416 0.708881 0.697909
          0.717534 0.702585 0.721619 0.720033 0.69745 0.705434
          0.693102 0.712971 0.706693 0.698394 0.278668 0.666194
          0.675265 0.690713 0.68685 0.70628 0.691829 0.686266
          0.694557 0.691225 0.701323 0.696728 0.694409 0.709999
          0.693838 0.692766 0.706604 0.683203 0.706563 0.702582
          0.706682 0.71142 0.727068 0.700319 0.698076 0.70827
          0.722719 0.706019 0.723963 0.700387 0.70253 0.701278
          0.699056 0.702655 0.28394 0.697002 0.69791 0.705871
          0.685329 0.711442 0.703084 0.702315 0.681513 0.708045
          0.699767 0.714356 0.695186 0.697605 0.688593 0.703673
          0.696325 0.698318 0.713427 0.693864 0.690958 0.705713
          0.722191 0.696112 0.706388 0.713597 0.694348 0.705341
          0.70438 0.701582 0.719091 0.712028 0.714511 0.719172
          0.274064 0.667568 0.701998 0.692895 0.692442 0.690262
          0.690081 0.706401 0.716359 0.696464 0.695124 0.694031
          0.693267 0.691585 0.693007 0.705873 0.69372 0.689627
          0.689073 0.711958 0.688469 0.700894 0.699961 0.708712
          0.701887 0.697791 0.700229 0.698938 0.69836 0.714697
          0.675654 0.707648 0.70227 0.689824 0.285818 0.671116
          0.709181 0.702967 0.69748 0.719096 0.68875 0.704734