<?xml version="1.0"?>
<VTKFile type="PolyData" version="0.1" byte_order="LittleEndian" header_type="UInt32" compressor="vtkZLibDataCompressor">
  <PolyData>
    <Piece NumberOfPoints="8160" NumberOfVerts="0" NumberOfLines="0" NumberOfStrips="0" NumberOfPolys="0">
      <PointData Scalars="Calcium Concentration">
        <DataArray type="Float32" Name="Calcium Concentration" format="ascii" RangeMin="0.23333199322223663" RangeMax="0.7380340099334717">
          0.248991 0.691317 0.695801 0.703056 0.712238 0.707283
          0.685019 0.695304 0.690823 0.703552 0.702184 0.710955
          0.694237 0.69472 0.70097 0.7075 0.695591 0.712957
          0.702411 0.690345 0.705591 0.688516 0.696427 0.679297
          0.675108 0.690358 0.691017 0.703294 0.69821 0.685483
          0.704061 0.696091 0.696519 0.694202 0.261144 0.695114
          0.708604 0.701015 0.706595 0.70594 0.68862 0.691336
          0.716055 0.703237 0.70365 0.701925 0.703431 0.69718
          0.696225 0.703494 0.693406 0.713325 0.702229 0.697607
          0.694855 0.685788 0.688082 0.675467 0.683757 0.700338
          0.690783 0.686067 0.691146 0.694521 0.708733 0.686845
          0.691465 0.692352 0.2527 0.669301 0.693246 0.683596
          0.685145 0.681732 0.690101 0.694495 0.687113 0.712079
          0.681976 0.701059 0.70377 0.692366 0.704179 0.707973
          0.709389 0.723464 0.721529 0.693531 0.711317 0.713488
          0.705184 0.72262 0.707873 0.707282 0.706726 0.717349
          0.707005 0.712 0.705978 0.70948 0.699911 0.709202
          0.250309 0.688629 0.694215 0.69848 0.709427 0.692135
          0.705799 0.693584 0.714232 0.707128 0.693046 0.699751
          0.699612 0.703722 0.695096 0.703507 0.694744 0.70268
          0.705863 0.698834 0.70466 0.697656 0.692768 0.691316
          0.691802 0.697618 0.69911 0.695305 0.712558 0.695537
          0.692942 0.703209 0.692581 0.695879 0.246171 0.67369
          0.683247 0.683143 0.680603 0.694366 0.690996 0.678909
          0.708134 0.706929 0.703483 0.690339 0.696448 0.703498
          0.687886 0.708651 0.695698 0.703594 0.713033 0.693245
          0.704365 0.689258 0.700631 0.681068 0.68923 0.689294
          0.693059 0.686813 0.695406 0.698418 0.684685 0.694214
          0.711288 0.685323 0.258506 0.689433 0.701505 0.706161
          0.704651 0.705467 0.690674 0.706408 0.678584 0.700819
          0.701666 0.699009 0.700203 0.694145 0.695723 0.709421
          0.693966 0.69056 0.703218 0.703325 0.694745 0.711038
          0.701495 0.701592 0.708398 0.724744 0.708112 0.692634
          0.690833 0.699898 0.716978 0.703416 0.696889 0.707076
          0.247251 0.672732 0.695363 0.689388 0.680653 0.69115
          0.672165 0.691332 0.695304 0.720604 0.687518 0.699275
          0.708323 0.701341 0.696707 0.687774 0.70196 0.720993
          0.705206 0.693681 0.692014 0.707562 0.702599 0.707241
          0.709505 0.71307 0.724808 0.71032 0.720668 0.713348
          0.705371 0.72055 0.705066 0.704601 0.243911 0.683857
          0.698121 0.691829 0.690337 0.70309 0.686277 0.677212
          0.681192 0.698363 0.714778 0.703063 0.689022 0.716452
          0.691616 0.710366 0.700913 0.694001 0.702747 0.69254
          0.690272 0.699102 0.688636 0.686616 0.698079 0.687959
          0.698622 0.686218 0.690513 0.682049 0.694551 0.682597
          0.668091 0.688653 0.241148 0.66993 0.67709 0.679737
          0.676935 0.687919 0.692709 0.702851 0.6899 0.70425
          0.704698 0.695896 0.694774 0.710314 0.690889 0.7143
          0.701124 0.698375 0.707425 0.690922 0.704902 0.717808
          0.698894 0.706252 0.702754 0.718163 0.694839 0.708937
          0.705812 0.711717 0.717607 0.713381 0.711516 0.712548
          0.252967 0.682804 0.697135 0.701462 0.701033 0.71714
          0.695088 0.694184 0.710082 0.705891 0.69896 0.695213
          0.695214 0.702808 0.705344 0.698872 0.696065 0.701581
          0.722369 0.690134 0.70659 0.710069 0.696425 0.707015
          0.714645 0.708512 0.697935 0.710646 0.711162 0.703355
          0.710273 0.696199 0.707317 0.710093 0.251582 0.690269
          0.701108 0.709633 0.688169 0.711544 0.685858 0.700732
          0.702606 0.703946 0.699922 0.695625 0.701547 0.691885
          0.690291 0.704854 0.696774 0.68872 0.706471 0.706212
          0.709948 0.714698 0.708363 0.712039 0.710079 0.691511
          0.703813 0.700349 0.71704 0.707841 0.720901 0.708883
          0.706484 0.710336 0.24429 0.673112 0.68661 0.694899
          0.681813 0.689342 0.684167 0.698682 0.701293 0.706031
          0.705252 0.704324 0.698714 0.691449 0.697748 0.705022
          0.704844 0.697329 0.713495 0.693432 0.689798 0.68772
          0.706511 0.683437 0.683586 0.699033 0.69218 0.696605
          0.680969 0.688422 0.693687 0.694974 0.698949 0.69439
          0.249269 0.691328 0.706561 0.694699 0.69225 0.697487
          0.704586 0.699192 0.708031 0.702144 0.701339 0.689965
          0.705036 0.696194 0.69947 0.701289 0.702134 0.698125
          0.715013 0.69497 0.692821 0.691331 0.695836 0.688744
          0.687983 0.695531 0.693291 0.690916 0.703881 0.697278
          0.691331 0.686095 0.69859 0.691798 0.255887 0.687942
          0.687814 0.704042 0.714101 0.681361 0.698953 0.690215
          0.701916 0.713092 0.696183 0.696816 0.692935 0.711595
          0.703239 0.701231 0.702359 0.701058 0.716513 0.704849
          0.695171 0.691457 0.675583 0.682508 0.675259 0.694166
          0.687142 0.698986 0.689359 0.690404 0.700866 0.687565
          0.680054 0.696027 0.244902 0.653806 0.690722 0.699853
          0.700268 0.685814 0.690104 0.697412 0.684831 0.700384
          0.699739 0.703756 0.695309 0.700423 0.684802 0.683259
          0.700772 0.694384 0.702901 0.693228 0.707181 0.713481
          0.712387 0.70857 0.705262 0.716705 0.708767 0.700853
          0.714577 0.721151 0.706697 0.721725 0.710682 0.699517
          0.24908 0.701017 0.698119 0.692947 0.710834 0.709362
          0.685534 0.696814 0.706539 0.702318 0.689891 0.701962
          0.703997 0.703072 0.695058 0.704815 0.695167 0.69991
          0.698621 0.701955 0.688645 0.68124 0.702487 0.68435
          0.687277 0.695432 0.697565 0.689919 0.686844 0.690302
          0.689199 0.690516 0.683919 0.696813 0.236845 0.667501
          0.695993 0.68497 0.688768 0.68739 0.692728 0.690197
          0.691756 0.684249 0.704069 0.705103 0.70234 0.705988
          0.700459 0.699266 0.69466 0.712949 0.703621 0.698336
          0.697733 0.697115 0.699173 0.688901 0.688964 0.690087
          0.687836 0.70631 0.705991 0.701278 0.708501 0.70569
          0.687833 0.696696 0.238155 0.678496 0.684688 0.668312
          0.68685 0.696013 0.693425 0.708967 0.686457 0.707388
          0.699956 0.710782 0.700013 0.696368 0.704967 0.6937
          0.695627 0.701627 0.706223 0.700808 0.695341 0.707737
          0.708705 0.708077 0.709627 0.729845 0.705486 0.699885
          0.702644 0.71056 0.707002 0.698454 0.719246 0.723588
          0.241545 0.67222 0.690638 0.691007 0.695041 0.678684
          0.688808 0.69172 0.702353 0.709757 0.694492 0.69086
          0.699543 0.694453 0.698912 0.698962 0.700957 0.715506
          0.700116 0.7061 0.693274 0.694926 0.689288 0.686499
          0.695267 0.699929 0.690054 0.682786 0.689312 0.688768
          0.700212 0.680106 0.700276 0.703255 0.259479 0.681559
          0.696222 0.708456 0.69442 0.692485 0.707219 0.700445
          0.697699 0.711522 0.699838 0.704269 0.697542 0.688143
          0.696568 0.702698 0.700081 0.698609 0.715878 0.696403
          0.687141 0.701448 0.684881 0.676583 0.699119 0.694867
          0.688511 0.698727 0.700456 0.690416 0.682943 0.690654
          0.681338 0.691831 0.240998 0.693816 0.686674 0.686098
          0.692266 0.695353 0.698664 0.708979 0.690673 0.692112
          0.70873 0.688443 0.692315 0.704635 0.682861 0.691667
          0.701915 0.698968 0.713371 0.693386 0.6882 0.701617
          0.67667 0.6819 0.690074 0.693934 0.692989 0.693675
          0.704402 0.699193 0.697556 0.688183 0.699849 0.703476
          0.254511 0.67708 0.700462 0.689246 0.697119 0.707494
          0.705102 0.700309 0.690158 0.70726 0.698505 0.692353
          0.711251 0.690673 0.699112 0.685491 0.69668 0.70071
          0.695518 0.706288 0.698512 0.71099 0.709408 0.704369
          0.706531 0.713176 0.720607 0.694723 0.722478 0.708988
          0.721204 0.699799 0.703519 0.703903 0.251638 0.70675
          0.682426 0.710511 0.700493 0.699294 0.707818 0.707535
          0.688202 0.69892 0.702165 0.692982 0.707126 0.688219
          0.689127 0.698946 0.702063 0.708776 0.706378 0.70152
          0.717529 0.709323 0.697722 0.708871 0.718344 0.706009
          0.69837 0.705729 0.688613 0.700434 0.715429 0.716289
          0.721026 0.713551 0.251624 0.699412 0.704857 0.690788
          0.70561 0.701174 0.706295 0.700784 0.69184 0.700656
          0.692514 0.696049 0.699044 0.713642 0.69504 0.696288
          0.707391 0.713682 0.701578 0.688334 0.706936 0.701812
          0.708506 0.71129 0.70968 0.711992 0.714578 0.716048
          0.720469 0.700716 0.69947 0.705325 0.699383 0.716939
          0.243382 0.683708 0.69837 0.698559 0.706394 0.687485
          0.714137 0.699855 0.709398 0.704771 0.703718 0.701015
          0.689445 0.704685 0.70286 0.698172 0.710074 0.684438
          0.703055 0.700738 0.700224 0.683148 0.671841 0.697581
          0.686606 0.693604 0.699338 0.689919 0.703239 0.698102
          0.684596 0.682592 0.685591 0.691836 0.256418 0.670666
          0.700875 0.714392 0.702337 0.705842 0.701617 0.702211
          0.68927 0.704552 0.692258 0.701366 0.707376 0.706117
          0.701954 0.704809 0.701783 0.696582 0.693012 0.702062
          0.702006 0.69209 0.685587 0.683684 0.689548 0.690917
          0.700829 0.695732 0.705837 0.706639 0.691613 0.699023
          0.701203 0.692128 0.263288 0.691864 0.68098 0.703525
          0.703918 0.702156 0.705116 0.692864 0.688982 0.687498
          0.719953 0.695577 0.696554 0.706004 0.695657 0.689835
          0.705377 0.717224 0.681256 0.696317 0.705956 0.695858
          0.675791 0.700159 0.692551 0.696681 0.679907 0.693586
          0.675767 0.682812 0.688231 0.677742 0.689815 0.693152
          0.254424 0.682637 0.686662 0.691733 0.683463 0.688673
          0.692561 0.691392 0.685924 0.708299 0.69576 0.679105
          0.687095 0.682845 0.682996 0.713068 0.699316 0.684435
          0.714011 0.693402 0.702071 0.696655 0.688078 0.690964
          0.685711 0.69351 0.695662 0.686341 0.687015 0.682131
          0.704846 0.693577 0.67619 0.706783 0.244912 0.682324
          0.693629 0.69962 0.698637 0.689262 0.702406 0.708717
          0.690357 0.720108 0.688025 0.683504 0.712378 0.694268
          0.71029 0.698593 0.694535 0.70235 0.690667 0.70828
          0.698172 0.694039 0.679827 0.682811 0.693733 0.692036
          0.684182 0.691445 0.712934 0.700224 0.682486 0.707618
          0.698225 0.68319 0.246913 0.677013 0.693313 0.695603
          0.701376 0.687968 0.701196 0.691015 0.698523 0.710226
          0.703996 0.689773 0.703996 0.706137 0.688145 0.721361
          0.690943 0.688195 0.721666 0.685639 0.692065 0.690836
          0.69603 0.691137 0.685308 0.693665 0.694651 0.703531
          0.698351 0.695522 0.691547 0.683319 0.679441 0.695707
          0.252723 0.663858 0.690753 0.690176 0.677877 0.689672
          0.685485 0.700346 0.689402 0.692656 0.699913 0.700768
          0.705839 0.704361 0.700928 0.692468 0.693346 0.691015
          0.687914 0.695486 0.688672 0.71626 0.710419 0.723796
          0.715952 0.71412 0.720159 0.697629 0.711 0.709299
          0.692925 0.70237 0.700681 0.712845 0.247739 0.680093
          0.703049 0.695567 0.69094 0.694599 0.697108 0.688804
          0.68091 0.683017 0.698663 0.692076 0.68566 0.709566
          0.69731 0.71306 0.696553 0.705102 0.707047 0.695792
          0.700684 0.706965 0.721688 0.70407 0.70117 0.717101
          0.698987 0.709706 0.713266 0.708879 0.708442 0.707446
          0.709929 0.709745 0.24534 0.677785 0.683487 0.68834
          0.710955 0.703044 0.708441 0.689771 0.694573 0.716991
          0.694091 0.68605 0.71559 0.704405 0.689492 0.699061
          0.68885 0.698101 0.725175 0.688315 0.708772 0.70203
          0.70532 0.705206 0.70422 0.707597 0.714059 0.705036
          0.700266 0.713266 0.718472 0.709795 0.709369 0.712609
          0.247683 0.664165 0.691441 0.700596 0.684829 0.68491
          0.687148 0.68993 0.683667 0.693192 0.709078 0.706727
          0.69138 0.700957 0.702295 0.71582 0.711439 0.701647
          0.702624 0.689923 0.703273 0.693199 0.687707 0.712875
          0.706687 0.682892 0.695721 0.697662 0.690546 0.690062
          0.695789 0.692808 0.698918 0.697997 0.262256 0.682872
          0.690383 0.681924 0.675656 0.695285 0.679195 0.687099
          0.700368 0.701528 0.700202 0.708036 0.697385 0.701705
          0.702328 0.704321 0.707357 0.698981 0.69575 0.715042
          0.695457 0.703341 0.695219 0.685958 0.68277 0.682372
          0.704762 0.700498 0.690774 0.70472 0.69362 0.694653
          0.688625 0.695221 0.247819 0.658896 0.681189 0.702487
          0.691563 0.693534 0.685562 0.690591 0.696868 0.691626
          0.690629 0.683896 0.699366 0.699625 0.710975 0.707703
          0.704212 0.704847 0.70879 0.711622 0.692893 0.705191
          0.697708 0.698828 0.716606 0.698999 0.700626 0.704143
          0.702464 0.695773 0.694496 0.690538 0.687211 0.689407
          0.239719 0.680204 0.69251 0.701071 0.69105 0.708443
          0.705314 0.697743 0.699528 0.69972 0.690269 0.705063
          0.698342 0.692111 0.685427 0.704497 0.691185 0.706721
          0.700706 0.703665 0.693387 0.695758 0.704203 0.685069
          0.690489 0.691347 0.687585 0.690096 0.708824 0.697702
          0.686429 0.677965 0.688507 0.680533 0.248067 0.659892
          0.686761 0.690628 0.692495 0.693958 0.685144 0.691468
          0.70024 0.69849 0.695371 0.693388 0.696062 0.691046
          0.685277 0.703104 0.691466 0.698885 0.698109 0.696801
          0.696186 0.696673 0.712092 0.703322 0.710423 0.714244
          0.7153 0.713229 0.717406 0.720348 0.69668 0.720626
          0.715458 0.708274 0.251586 0.693241 0.687237 0.690784
          0.698971 0.697149 0.691073 0.692957 0.694312 0.707208
          0.686229 0.702172 0.695024 0.694659 0.698689 0.704512
          0.69782 0.703932 0.715652 0.692874 0.70716 0.69486
          0.689183 0.706921 0.706915 0.696553 0.711695 0.693155
          0.682337 0.698752 0.691428 0.686226 0.688358 0.690554
          0.243758 0.693756 0.694494 0.694853 0.69355 0.698957
          0.700538 0.695849 0.703912 0.708927 0.702343 0.690819
          0.710658 0.700254 0.698581 0.695556 0.697012 0.699424
          0.699218 0.690462 0.705776 0.703839 0.694032 0.6842
          0.701314 0.685462 0.687116 0.685171 0.69528 0.697857
          0.7102 0.696451 0.678147 0.696048 0.242659 0.680626
          0.696354 0.704465 0.704861 0.69628 0.706961 0.698293
          0.712444 0.694466 0.693689 0.709818 0.699385 0.689999
          0.697259 0.689871 0.702653 0.701446 0.682998 0.713452
          0.694914 0.705224 0.698603 0.703567 0.690926 0.697496
          0.697997 0.699385 0.700395 0.698072 0.678661 0.697455
          0.686733 0.695894 0.252341 0.689722 0.713753 0.692766
          0.68509 0.70258 0.69776 0.716613 0.688896 0.695403
          0.706088 0.694157 0.709199 0.690209 0.693734 0.713672
          0.697634 0.698543 0.709358 0.704982 0.69488 0.699957
          0.704895 0.700728 0.705601 0.718552 0.711499 0.71219
          0.70849 0.710502 0.710393 0.704118 0.706374 0.707377
          0.242538 0.682433 0.700791 0.696225 0.698121 0.697322
          0.709314 0.687922 0.698823 0.698194 0.715537 0.698231
          0.69387 0.701617 0.701136 0.688706 0.700232 0.698467
          0.715247 0.699212 0.683817 0.690867 0.697052 0.69238
          0.690145 0.6911 0.683926 0.688283 0.688983 0.692513
          0.697143 0.698449 0.682368 0.68755 0.239605 0.688406
          0.700504 0.683383 0.698459 0.704061 0.698637 0.700661
          0.697049 0.704371 0.706633 0.690554 0.708016 0.695732
          0.693531 0.703655 0.703024 0.697948 0.711302 0.695321
          0.706418 0.703805 0.700697 0.706108 0.711796 0.710557
          0.708839 0.691943 0.711868 0.719382 0.694602 0.704172
          0.714625 0.706374 0.243127 0.655078 0.691775 0.694092
          0.698994 0.690193 0.689105 0.704533 0.701957 0.69896
          0.68558 0.698897 0.68215 0.705254 0.695853 0.698766
          0.694638 0.71024 0.701479 0.705145 0.705251 0.705908
          0.716189 0.7145 0.715977 0.708612 0.711575 0.724349
          0.716549 0.711528 0.702317 0.724736 0.708237 0.706971
          0.242457 0.659822 0.686121 0.6749 0.685375 0.697321
          0.701998 0.690092 0.681265 0.703082 0.719276 0.693129
          0.697538 0.695171 0.694082 0.703214 0.698716 0.710844
          0.697776 0.694626 0.706581 0.701899 0.714112 0.703464
          0.716639 0.716131 0.704053 0.704845 0.705762 0.722359
          0.703055 0.71334 0.711778 0.709039 0.242872 0.671702
          0.681536 0.690699 0.688814 0.678583 0.693205 0.680053
          0.695149 0.712056 0.696374 0.695421 0.700269 0.703871
          0.699051 0.704247 0.706877 0.707091 0.711433 0.687224
          0.710777 0.712198 0.720951 0.706326 0.691353 0.702962
          0.695409 0.706179 0.704983 0.720766 0.69391 0.713788
          0.711158 0.708941 0.260131 0.701095 0.704445 0.693244
          0.696362 0.706976 0.693064 0.696451 0.700931 0.695537
          0.701288 0.672278 0.694104 0.717667 0.682488 0.708585
          0.700652 0.699361 0.70821 0.707924 0.705528 0.707157
          0.710928 0.707185 0.692771 0.702568 0.709532 0.713055
          0.709658 0.705127 0.719727 0.707036 0.699764 0.719237
          0.233852 0.668173 0.691156 0.699787 0.685105 0.685318
          0.696749 0.689567 0.684004 0.684427 0.704558 0.702349
          0.708148 0.700891 0.695478 0.705783 0.687336 0.693859
          0.703688 0.697574 0.687814 0.685321 0.678903 0.692883
          0.705946 0.693637 0.697148 0.691542 0.683885 0.702737
          0.687535 0.694417 0.691522 0.692424 0.260179 0.669224
          0.702256 0.697412 0.691589 0.692638 0.698644 0.699312
          0.692312 0.713316 0.695894 0.703528 0.711032 0.680144
          0.713127 0.702229 0.697477 0.708136 0.687373 0.71495
          0.694239 0.7013 0.696261 0.699405 0.693843 0.697185
          0.702176 0.709064 0.705138 0.680223 0.692735 0.698546
          0.683696 0.691929 0.254262 0.670839 0.693126 0.687867
          0.670112 0.688702 0.682934 0.706811 0.716086 0.693621
          0.684658 0.692695 0.690414 0.70075 0.714335 0.707962
          0.690245 0.69959 0.696115 0.709673 0.698456 0.689162
          0.689951 0.691379 0.692859 0.692336 0.690869 0.692209
          0.701872 0.711872 0.675605 0.693231 0.703258 0.703883
          0.243898 0.655309 0.689794 0.695284 0.695859 0.681646
          0.696312 0.701714 0.69308 0.682412 0.695016 0.700203
          0.701907 0.696965 0.701191 0.712118 0.678941 0.682592
          0.7062 0.70253 0.695631 0.724222 0.709242 0.719839
          0.72133 0.724306 0.712015 0.703739 0.713763 0.699979
          0.700018 0.707425 0.720982 0.689272 0.2554 0.655776
          0.683379 0.701115 0.687438 0.678025 0.676671 0.694729
          0.704391 0.692207 0.702582 0.706895 0.696613 0.708897
          0.703888 0.703307 0.69105 0.691718 0.694219 0.702003
          0.698143 0.706695 0.70007 0.697629 0.705807 0.684668
          0.698768 0.697077 0.689126 0.690026 0.688774 0.698801
          0.692785 0.696063 0.255715 0.68512 0.695358 0.680019
          0.687282 0.691545 0.700994 0.689689 0.677841 0.703864
          0.716833 0.682593 0.705254 0.698962 0.685861 0.703374
          0.697447 0.700951 0.710308 0.714705 0.702908 0.692926
          0.695654 0.704075 0.675545 0.695364 0.698534 0.692584
          0.683653 0.693649 0.684945 0.682187 0.696978 0.695751
          0.252407 0.709297 0.705594 0.723609 0.69243 0.689138
          0.690818 0.701285 0.697834 0.708073 0.690625 0.696063
          0.700211 0.702122 0.679608 0.691925 0.691138 0.705699
          0.722713 0.691948 0.702968 0.698496 0.699926 0.707565
          0.718009 0.716611 0.719187 0.704483 0.697748 0.707527
          0.719993 0.707421 0.709807 0.718368 0.248078 0.691628
          0.692787 0.701879 0.69576 0.697503 0.692763 0.693965
          0.700122 0.700675 0.697722 0.688467 0.705308 0.699891
          0.688525 0.696333 0.705547 0.704025 0.717609 0.70505
          0.69326 0.703556 0.703054 0.708358 0.717633 0.690462
          0.699492 0.698726 0.709683 0.697109 0.72437 0.715696
          0.709767 0.700272 0.246499 0.655969 0.690633 0.69219
          0.686265 0.68446 0.688578 0.693661 0.706653 0.703165
          0.691464 0.691846 0.711198 0.694941 0.70246 0.702401
          0.688528 0.704707 0.698777 0.699213 0.702498 0.699114
          0.691391 0.69983 0.699598 0.70399 0.69722 0.708555
          0.693749 0.712915 0.681845 0.715742 0.700777 0.695754
          0.25697 0.693732 0.705356 0.692942 0.706843 0.706715
          0.702882 0.70334 0.6985 0.672524 0.695629 0.709115
          0.708597 0.706635 0.702422 0.696462 0.702375 0.702509
          0.702155 0.715357 0.707736 0.714107 0.700446 0.705273
          0.71 0.703196 0.692079 0.700073 0.703206 0.708612
          0.70622 0.705792 0.713349 0.70701 0.250695 0.663966
          0.683769 0.683412 0.68089 0.679504 0.690233 0.706013
          0.705632 0.707593 0.705275 0.695414 0.707562 0.707853
          0.710602 0.68815 0.704089 0.703686 0.709124 0.70858
          0.700422 0.698097 0.679229 0.682175 0.697446 0.687136
          0.688326 0.68468 0.689339 0.689941 0.69234 0.680066
          0.6882 0.696546 0.246139 0.676911 0.704221 0.702062
          0.700249 0.698033 0.697891 0.687154 0.684812 0.692966
          0.720289 0.69557 0.695023 0.69282 0.704099 0.705759
          0.712415 0.697951 0.694911 0.704238 0.693982 0.693865
          0.695278 0.693482 0.696968 0.701427 0.696821 0.690178
          0.690356 0.698002 0.682932 0.688386 0.692734 0.67409
          0.254625 0.693709 0.702019 0.695519 0.703947 0.698785
          0.695512 0.701634 0.706155 0.701475 0.698439 0.707017
          0.688976 0.698739 0.703115 0.69374 0.692593 0.695981
          0.708207 0.702644 0.697137 0.692874 0.680441 0.699731
          0.68954 0.692052 0.695253 0.699461 0.679381 0.68772
          0.679137 0.689246 0.685525 0.70037 0.259941 0.702924
          0.701993 0.690985 0.701923 0.710504 0.689351 0.708298
          0.700334 0.69086 0.712992 0.695297 0.701206 0.706848
          0.690724 0.713691 0.703543 0.703873 0.70203 0.702726
          0.689858 0.685417 0.677118 0.683184 0.681241 0.701076
          0.676998 0.693248 0.692586 0.687148 0.700595 0.676558
          0.696396 0.704453 0.240771 0.667393 0.692719 0.702639
          0.682362 0.683276 0.684008 0.706322 0.696226 0.683039
          0.694421 0.710317 0.710339 0.696365 0.712551 0.708989
          0.689432 0.693753 0.69657 0.704215 0.69731 0.711376
          0.725749 0.703094 0.715212 0.707498 0.71001 0.708264
          0.705879 0.703865 0.70462 0.727716 0.711911 0.696925
          0.252138 0.668205 0.684366 0.683833 0.683548 0.682889
          0.679574 0.710215 0.696633 0.701516 0.690097 0.71272
          0.694747 0.711015 0.707557 0.702793 0.68854 0.694266
          0.700501 0.708678 0.69422 0.699963 0.69156 0.678976
          0.695167 0.684576 0.698065 0.697057 0.693906 0.692421
          0.69566 0.68551 0.694707 0.700018 0.242512 0.672857
          0.688726 0.691767 0.696356 0.684667 0.692367 0.692272
          0.683951 0.692758 0.700825 0.698857 0.696169 0.691836
          0.70475 0.698372 0.696134 0.699875 0.721996 0.688413
          0.706888 0.704744 0.713542 0.709103 0.721254 0.706898
          0.706925 0.691971 0.708425 0.710911 0.722664 0.722305
          0.700209 0.722958 0.251025 0.664709 0.695222 0.693241
          0.704476 0.703304 0.693363 0.714676 0.70756 0.694377
          0.705668 0.707318 0.694224 0.699336 0.708223 0.685512
          0.690235 0.701756 0.697535 0.69487 0.698176 0.691865
          0.69969 0.71589 0.70537 0.687358 0.689449 0.703802
          0.69333 0.697893 0.683227 0.689561 0.689853 0.683367
          0.264198 0.681668 0.700665 0.696187 0.692912 0.700759
          0.70312 0.701135 0.701159 0.695474 0.695021 0.70309
          0.707825 0.705072 0.696193 0.712024 0.689007 0.699568
          0.69767 0.691292 0.704941 0.692105 0.706923 0.698897
          0.701265 0.681148 0.699151 0.684811 0.686494 0.700172
          0.705187 0.68411 0.706663 0.688685 0.264274 0.672357
          0.696051 0.704809 0.694853 0.697089 0.689625 0.713833
          0.70041 0.711651 0.690951 0.707354 0.698733 0.696003
          0.707496 0.692624 0.705684 0.705764 0.69701 0.713238
          0.704132 0.691232 0.691662 0.69629 0.69906 0.69149
          0.711135 0.698882 0.695016 0.705295 0.675872 0.69466
          0.695582 0.686908 0.258151 0.684214 0.707536 0.706308
          0.689037 0.695845 0.696286 0.692297 0.684388 0.691548
          0.692879 0.676548 0.712458 0.705489 0.693184 0.691672
          0.707477 0.707824 0.705311 0.695518 0.704373 0.697036
          0.697471 0.709832 0.702859 0.699906 0.704065 0.704871
          0.7153 0.709772 0.707254 0.685243 0.722543 0.725777
          0.248265 0.676239 0.681146 0.678007 0.682521 0.694931
          0.686843 0.690471 0.708184 0.696591 0.715261 0.702389
          0.698167 0.712323 0.693152 0.713992 0.696098 0.701685
          0.704035 0.694885 0.697112 0.690957 0.691767 0.688123
          0.683424 0.689178 0.691699 0.682249 0.696911 0.695438
          0.677855 0.689815 0.692535 0.685892 0.263264 0.702047
          0.694599 0.700324 0.695083 0.691384 0.707086 0.701797
          0.709813 0.69422 0.706437 0.675507 0.7221 0.713289
          0.693175 0.695328 0.699539 0.717762 0.706209 0.695874
          0.690132 0.687808 0.685194 0.701888 0.695047 0.684141
          0.679086 0.689348 0.684276 0.687728 0.696408 0.684078
          0.699586 0.695335 0.256343 0.665212 0.701515 0.697304
          0.691128 0.693053 0.687879 0.705956 0.70016 0.685579
          0.700742 0.700322 0.704729 0.70646 0.694521 0.717024
          0.685601 0.68273 0.70107 0.701518 0.69627 0.698244
          0.713519 0.695533 0.713397 0.687246 0.700115 0.706326
          0.698181 0.706018 0.68829 0.699039 0.699185 0.689981
          0.251194 0.690942 0.700498 0.703741 0.691036 0.699848
          0.703737 0.706693 0.707964 0.706608 0.692496 0.708789
          0.696483 0.706941 0.709822 0.703038 0.693292 0.702654
          0.706262 0.68917 0.70311 0.714005 0.708703 0.718003
          0.708049 0.70308 0.698864 0.696773 0.714531 0.712118
          0.689869 0.717816 0.715665 0.712887 0.233332 0.652834
          0.686376 0.700629 0.694385 0.69376 0.681295 0.690665
          0.696387 0.702758 0.702344 0.706257 0.695276 0.701936
          0.702783 0.699872 0.709708 0.694165 0.698247 0.694764
          0.710492 0.705651 0.704043 0.709827 0.71372 0.704068
          0.707277 0.704214 0.694466 0.711863 0.709061 0.710955
          0.711578 0.706103 0.247854 0.6635 0.692353 0.693599
          0.689783 0.700938 0.703902 0.698068 0.688332 0.684653
          0.695081 0.697376 0.701463 0.707287 0.700099 0.698888
          0.696691 0.697457 0.700959 0.694367 0.707501 0.710874
          0.720075 0.71081 0.711045 0.713493 0.711666 0.704997
          0.704397 0.719786 0.701762 0.701285 0.70643 0.705487
          0.242485 0.689296 0.694784 0.692744 0.710672 0.698271
          0.696237 0.693824 0.695182 0.701904 0.691063 0.697174
          0.694769 0.696147 0.696948 0.693941 0.691103 0.701906
          0.693961 0.687635 0.711707 0.705652 0.696397 0.699261
          0.703153 0.711826 0.712022 0.732466 0.704004 0.709259
          0.703325 0.712227 0.709814 0.706822 0.256575 0.677833
          0.687945 0.706068 0.698302 0.695115 0.697836 0.69956
          0.705194 0.699093 0.697045 0.706877 0.69945 0.698151
          0.701824 0.692219 0.686841 0.702924 0.703667 0.704586
          0.714626 0.704308 0.690876 0.705584 0.706514 0.715875
          0.705691 0.71155 0.710336 0.714446 0.698997 0.692837
          0.700265 0.709012 0.260231 0.669523 0.688992 0.684695
          0.682146 0.69144 0.69046 0.689191 0.695086 0.698362
          0.70614 0.692182 0.704681 0.705559 0.679862 0.706612
          0.694396 0.696691 0.707338 0.705389 0.711998 0.704879
          0.709522 0.712278 0.703382 0.701105 0.699224 0.702709
          0.708103 0.687347 0.716646 0.700478 0.703755 0.709206
          0.255718 0.685018 0.701396 0.699965 0.691343 0.705132
          0.693919 0.718095 0.69661 0.68668 0.701708 0.71291
          0.692917 0.726535 0.699674 0.697325 0.692368 0.70589
          0.70337 0.691989 0.718702 0.704739 0.707378 0.695675
          0.716448 0.700679 0.720944 0.72335 0.699398 0.705725
          0.692738 0.713798 0.709108 0.700311 0.256664 0.666228
          0.675772 0.692207 0.684126 0.706651 0.691292 0.687455
          0.694167 0.688618 0.699274 0.696574 0.694102 0.706396
          0.691345 0.692283 0.705046 0.682194 0.7091 0.702762
          0.703003 0.705871 0.72461 0.696151 0.702079 0.704664
          0.720008 0.704295 0.721343 0.704624 0.702677 0.697301
          0.703153 0.702903 0.26436 0.690567 0.695646 0.704141
          0.684513 0.714277 0.703288 0.702411 0.682413 0.706425
          0.699653 0.717281 0.694933 0.691173 0.6899 0.703883
          0.694051 0.700286 0.712236 0.693444 0.692434 0.70394
          0.723572 0.697861 0.702613 0.708241 0.698129 0.701451
          0.702687 0.705773 0.718124 0.706548 0.71752 0.720398
          0.249687 0.663573 0.698133 0.694471 0.6941 0.689603
          0.691557 0.708829 0.719513 0.694177 0.698999 0.695736
          0.692961 0.691127 0.690476 0.702111 0.691303 0.691109
          0.688401 0.708648 0.687715 0.70092 0.704051 0.707139
          0.701914 0.693513 0.702297 0.700917 0.69826 0.7156
          0.67202 0.706092 0.700406 0.691258 0.260106 0.665202
          0.711816 0.69699 0.699418 0.724363 0.690114 0.700864