<?xml version="1.0"?>
<VTKFile type="PolyData" version="0.1" byte_order="LittleEndian" header_type="UInt32" compressor="vtkZLibDataCompressor">
  <PolyData>
    <Piece NumberOfPoints="7920" NumberOfVerts="0" NumberOfLines="0" NumberOfStrips="0" NumberOfPolys="0">
      <PointData Scalars="Calcium Concentration">
        <DataArray type="Float32" Name="Calcium Concentration" format="ascii" RangeMin="0.5667060017585754" RangeMax="0.7359960079193115">
          0.602441 0.713166 0.709616 0.697904 0.703518 0.698828
          0.694057 0.722035 0.698634 0.677152 0.702997 0.702405
          0.698105 0.714278 0.694431 0.697777 0.692704 0.701588
          0.694968 0.715808 0.690503 0.683711 0.684964 0.693053
          0.688436 0.685687 0.70566 0.686041 0.691286 0.689955
          0.70797 0.694045 0.674139 0.612854 0.696097 0.698015
          0.703493 0.692068 0.692397 0.694249 0.706998 0.695788
          0.702571 0.689612 0.7027 0.694001 0.693033 0.7112
          0.68259 0.710198 0.694149 0.695946 0.706756 0.690029
          0.692674 0.680281 0.687757 0.678543 0.695697 0.691789
          0.690602 0.690896 0.694143 0.691319 0.680405 0.693875
          0.599004 0.690911 0.704825 0.685084 0.688043 0.683768
          0.691647 0.69563 0.70167 0.705068 0.701043 0.697267
          0.691108 0.703327 0.702524 0.700955 0.709247 0.711487
          0.705073 0.70181 0.720766 0.704818 0.711875 0.697847
          0.709618 0.710618 0.708794 0.706301 0.716574 0.701424
          0.709033 0.708869 0.720131 0.599901 0.697028 0.709676
          0.701606 0.699964 0.692093 0.703401 0.69197 0.706552
          0.698762 0.690796 0.694416 0.700701 0.69722 0.710444
          0.700662 0.700977 0.698764 0.701665 0.706008 0.696585
          0.688485 0.694395 0.696278 0.683255 0.71221 0.711497
          0.690384 0.70431 0.700557 0.697974 0.700416 0.705506
          0.585647 0.680118 0.690047 0.703643 0.689364 0.687723
          0.687946 0.702578 0.691696 0.696258 0.701939 0.698246
          0.70184 0.702591 0.700015 0.701336 0.698497 0.68633
          0.697033 0.704231 0.693449 0.693944 0.694337 0.679282
          0.694723 0.691834 0.682581 0.702343 0.687242 0.689492
          0.687272 0.69442 0.696513 0.600244 0.702587 0.704101
          0.699338 0.705427 0.702092 0.692673 0.706278 0.712671
          0.706219 0.699611 0.707403 0.699031 0.699402 0.704033
          0.699785 0.707384 0.691637 0.71566 0.697293 0.705582
          0.706743 0.69258 0.692839 0.712702 0.708266 0.707629
          0.688954 0.701872 0.717537 0.715898 0.715897 0.701067
          0.593644 0.678483 0.684448 0.687403 0.68753 0.69403
          0.687082 0.698318 0.712813 0.707013 0.696488 0.688965
          0.701326 0.713111 0.69956 0.701709 0.692788 0.701596
          0.705458 0.696718 0.705264 0.709919 0.699999 0.700263
          0.695876 0.718305 0.708932 0.712537 0.720938 0.698955
          0.720307 0.708516 0.708358 0.59055 0.682044 0.674605
          0.694135 0.682484 0.700976 0.677979 0.671832 0.709948
          0.699574 0.69152 0.702664 0.704967 0.695405 0.70227
          0.695503 0.701054 0.705966 0.704575 0.704507 0.685385
          0.68657 0.683358 0.688962 0.700354 0.693678 0.694739
          0.685336 0.696291 0.670848 0.698264 0.683768 0.692304
          0.589533 0.69305 0.687047 0.689901 0.692959 0.696253
          0.685376 0.706258 0.693086 0.694072 0.70238 0.704666
          0.696042 0.689639 0.698126 0.704153 0.711964 0.689156
          0.69838 0.697988 0.711076 0.691297 0.708082 0.702214
          0.711119 0.708466 0.707283 0.702671 0.71057 0.701374
          0.714327 0.705781 0.716155 0.610713 0.701649 0.702413
          0.709679 0.697428 0.689927 0.70925 0.701682 0.695116
          0.699818 0.713255 0.691533 0.704772 0.701976 0.703319
          0.691862 0.705052 0.693763 0.693691 0.700266 0.705016
          0.693566 0.70369 0.70561 0.70757 0.713591 0.710497
          0.704181 0.70206 0.704939 0.71339 0.697825 0.705669
          0.61654 0.698382 0.691687 0.699339 0.694826 0.69429
          0.707692 0.694405 0.703772 0.696465 0.704421 0.7068
          0.704807 0.699967 0.700096 0.717875 0.694938 0.698132
          0.693296 0.695821 0.710132 0.703616 0.720547 0.695083
          0.696121 0.719219 0.711939 0.693881 0.697072 0.706419
          0.713577 0.721959 0.710971 0.594613 0.680129 0.68891
          0.687078 0.676687 0.687906 0.689228 0.710699 0.693507
          0.701768 0.700215 0.697698 0.707869 0.706226 0.696072
          0.69989 0.709985 0.708847 0.698182 0.719091 0.695801
          0.68677 0.687169 0.675918 0.677081 0.692954 0.680149
          0.691548 0.689073 0.69047 0.699798 0.694301 0.703674
          0.608844 0.696921 0.692147 0.726483 0.688694 0.706561
          0.707243 0.696779 0.696347 0.687837 0.691971 0.694633
          0.709188 0.700178 0.697198 0.701996 0.69741 0.698319
          0.695358 0.709845 0.689405 0.70016 0.690317 0.684457
          0.69442 0.697554 0.689611 0.703725 0.694347 0.69881
          0.695547 0.693273 0.690654 0.603013 0.698654 0.690645
          0.705912 0.706143 0.699209 0.710685 0.719364 0.704736
          0.69498 0.698556 0.701478 0.695815 0.703343 0.709464
          0.699873 0.692228 0.694149 0.704956 0.686396 0.693613
          0.703856 0.687842 0.680754 0.688083 0.693442 0.688956
          0.690704 0.698432 0.679836 0.686551 0.690755 0.692074
          0.58412 0.674768 0.6924 0.694045 0.687878 0.677774
          0.680244 0.701154 0.681284 0.689309 0.712785 0.691598
          0.700454 0.706196 0.708489 0.69816 0.709843 0.705208
          0.698015 0.699128 0.699345 0.707981 0.704667 0.713055
          0.708255 0.70247 0.716536 0.727864 0.711067 0.721662
          0.703699 0.716431 0.715868 0.603468 0.692281 0.691356
          0.7101 0.699013 0.698211 0.691001 0.698477 0.695242
          0.706917 0.698785 0.692383 0.700835 0.705709 0.696131
          0.699838 0.697388 0.699218 0.701734 0.701989 0.680178
          0.693053 0.695395 0.68955 0.689453 0.694254 0.692914
          0.688755 0.689271 0.678057 0.698451 0.676656 0.677817
          0.588271 0.68805 0.676374 0.684859 0.690256 0.699129
          0.692337 0.698398 0.69131 0.693213 0.691711 0.703959
          0.705823 0.693326 0.693722 0.696271 0.699881 0.721137
          0.68838 0.687413 0.687635 0.689215 0.702187 0.690061
          0.691607 0.693674 0.692064 0.695369 0.697808 0.7055
          0.694875 0.693703 0.692527 0.591248 0.68852 0.682386
          0.679191 0.690888 0.681381 0.686529 0.711306 0.7012
          0.701786 0.691739 0.698601 0.697908 0.710488 0.68535
          0.706062 0.694292 0.706044 0.707914 0.700349 0.708801
          0.718847 0.70386 0.704832 0.707406 0.713132 0.703886
          0.698949 0.709519 0.700565 0.719412 0.699828 0.71702
          0.57499 0.685526 0.687464 0.688774 0.694767 0.681337
          0.682614 0.715064 0.700203 0.698814 0.705087 0.711442
          0.704282 0.696648 0.707147 0.704873 0.699043 0.69569
          0.688348 0.696403 0.685758 0.705566 0.684691 0.686569
          0.694468 0.69332 0.698162 0.687258 0.703246 0.682109
          0.699839 0.702519 0.711028 0.611311 0.69824 0.69987
          0.700528 0.698286 0.69208 0.706333 0.701516 0.699991
          0.698805 0.698186 0.705268 0.69583 0.714836 0.704143
          0.705135 0.697912 0.698598 0.710437 0.692272 0.698575
          0.691054 0.685608 0.682727 0.691636 0.684617 0.695128
          0.695814 0.689594 0.688407 0.690161 0.688616 0.683804
          0.60245 0.710027 0.704787 0.716352 0.717423 0.690655
          0.690636 0.694131 0.717979 0.696206 0.702352 0.703784
          0.694413 0.69978 0.69534 0.704385 0.700069 0.700587
          0.698266 0.697892 0.687207 0.696372 0.675688 0.700682
          0.688782 0.696953 0.689635 0.690597 0.701407 0.700186
          0.699123 0.6909 0.685054 0.612735 0.706013 0.698429
          0.696136 0.699393 0.696664 0.71845 0.684915 0.701927
          0.70249 0.686282 0.711683 0.703917 0.703377 0.716085
          0.69971 0.707092 0.689034 0.704255 0.695392 0.708201
          0.707324 0.713677 0.709336 0.703778 0.714182 0.706385
          0.703824 0.727639 0.712225 0.704031 0.703076 0.702926
          0.60676 0.708026 0.692648 0.727881 0.697755 0.690815
          0.688722 0.701576 0.708324 0.698956 0.704687 0.698198
          0.699431 0.708017 0.682072 0.715578 0.712023 0.682513
          0.692003 0.69288 0.727494 0.692476 0.707379 0.696898
          0.701901 0.721892 0.713294 0.709256 0.716173 0.723043
          0.729261 0.707603 0.711543 0.608269 0.715299 0.697525
          0.695667 0.70405 0.703 0.69842 0.705959 0.709793
          0.706738 0.690248 0.69853 0.70844 0.697769 0.70766
          0.707401 0.686829 0.703757 0.697994 0.693605 0.704064
          0.713314 0.727141 0.705059 0.714286 0.711794 0.716185
          0.720127 0.707103 0.714302 0.722457 0.702204 0.697077
          0.597853 0.688802 0.694443 0.699846 0.707806 0.695673
          0.691606 0.700817 0.715659 0.708865 0.689206 0.688905
          0.701029 0.691936 0.717709 0.690071 0.703886 0.689802
          0.693831 0.710528 0.69142 0.684536 0.683133 0.692496
          0.689212 0.711665 0.698748 0.692911 0.684521 0.696666
          0.690287 0.686761 0.689312 0.611124 0.689871 0.697627
          0.682664 0.696879 0.690812 0.714737 0.69205 0.698987
          0.698498 0.701558 0.696614 0.693197 0.690672 0.714769
          0.698614 0.697693 0.692378 0.699844 0.699277 0.703306
          0.679561 0.68657 0.689081 0.680583 0.701199 0.68901
          0.685812 0.700298 0.699837 0.690313 0.698388 0.697712
          0.592272 0.709701 0.69759 0.717775 0.696492 0.697169
          0.699435 0.698674 0.71616 0.702058 0.703369 0.701697
          0.692662 0.708768 0.692277 0.710541 0.696497 0.70016
          0.705896 0.698206 0.695222 0.692068 0.679993 0.677238
          0.692822 0.685714 0.684863 0.683826 0.681564 0.686461
          0.694688 0.688097 0.680041 0.589636 0.697651 0.692147
          0.683856 0.699767 0.69138 0.698515 0.701994 0.689161
          0.687517 0.697556 0.690703 0.692795 0.711027 0.703502
          0.701508 0.708685 0.678653 0.71394 0.70916 0.680402
          0.690303 0.68694 0.680043 0.695381 0.692119 0.691295
          0.687696 0.690618 0.709029 0.698544 0.689936 0.68758
          0.601824 0.70459 0.710749 0.706834 0.702415 0.696407
          0.696078 0.704737 0.701776 0.708968 0.701071 0.695373
          0.707287 0.697617 0.711286 0.707153 0.684148 0.708663
          0.702296 0.689923 0.690671 0.689347 0.684364 0.690564
          0.695593 0.676871 0.681084 0.693025 0.698693 0.68499
          0.690774 0.686921 0.692187 0.597982 0.707725 0.71627
          0.692158 0.707349 0.69028 0.701608 0.694258 0.707398
          0.698347 0.706194 0.699787 0.688803 0.70964 0.697804
          0.691891 0.699742 0.702113 0.706733 0.688724 0.699126
          0.694899 0.67281 0.695602 0.691564 0.691112 0.689437
          0.693556 0.69621 0.698294 0.692324 0.695018 0.685606
          0.586272 0.682188 0.694163 0.699361 0.686379 0.683615
          0.68976 0.695452 0.684273 0.710695 0.701895 0.71016
          0.697003 0.692624 0.694275 0.700854 0.706214 0.697228
          0.706606 0.695222 0.715846 0.704472 0.705096 0.714616
          0.723975 0.712437 0.721588 0.705725 0.71145 0.703414
          0.697265 0.709588 0.71315 0.581649 0.688404 0.692308
          0.684418 0.688851 0.686751 0.701872 0.68914 0.686487
          0.685459 0.710743 0.711615 0.708749 0.703902 0.686545
          0.706689 0.704521 0.688905 0.711251 0.694688 0.715981
          0.713424 0.700624 0.697712 0.698821 0.696855 0.704374
          0.713425 0.699399 0.706289 0.718595 0.722415 0.700979
          0.611387 0.710105 0.686115 0.696679 0.704315 0.695528
          0.703856 0.68884 0.711085 0.701238 0.709779 0.695167
          0.688521 0.696011 0.708687 0.707155 0.708304 0.688402
          0.698221 0.692663 0.704207 0.696166 0.699579 0.693501
          0.694792 0.721343 0.70551 0.708863 0.711479 0.720422
          0.712184 0.705644 0.701506 0.5927 0.684916 0.684442
          0.691889 0.674259 0.687321 0.690236 0.706013 0.684752
          0.713918 0.697266 0.690075 0.705095 0.712431 0.688441
          0.701451 0.695258 0.697503 0.69174 0.710237 0.688175
          0.697955 0.683397 0.698865 0.69701 0.69683 0.695358
          0.697085 0.690056 0.69289 0.684973 0.695263 0.704063
          0.594723 0.693655 0.708969 0.677608 0.679593 0.685368
          0.694825 0.689164 0.695939 0.689599 0.702108 0.691083
          0.70568 0.700298 0.70733 0.697972 0.698735 0.697701
          0.694732 0.710501 0.697006 0.69703 0.688637 0.704416
          0.69436 0.692816 0.698003 0.684442 0.689433 0.689895
          0.699296 0.692463 0.689879 0.574515 0.675524 0.699605
          0.696335 0.693984 0.686362 0.692238 0.702198 0.689572
          0.694309 0.689636 0.692679 0.703691 0.689384 0.700578
          0.693356 0.704508 0.696942 0.68634 0.693266 0.70212
          0.700642 0.681763 0.70587 0.705257 0.704529 0.699094
          0.691853 0.695607 0.698541 0.686864 0.686781 0.694168
          0.589781 0.684129 0.704196 0.699559 0.700363 0.695253
          0.704813 0.706387 0.688115 0.708773 0.706889 0.688148
          0.705341 0.710968 0.69687 0.70001 0.711092 0.700203
          0.707039 0.698188 0.686595 0.693216 0.698209 0.681545
          0.702897 0.691458 0.676155 0.694043 0.702267 0.69719
          0.68262 0.686729 0.682829 0.57677 0.683146 0.698819
          0.687194 0.677468 0.694317 0.68793 0.694744 0.683518
          0.698529 0.686055 0.707686 0.710297 0.704364 0.697242
          0.700051 0.709354 0.714404 0.696259 0.693537 0.710283
          0.708102 0.720778 0.70741 0.701484 0.707959 0.721416
          0.731752 0.705508 0.695209 0.702618 0.701022 0.720711
          0.618194 0.706156 0.708348 0.709466 0.696085 0.711567
          0.710882 0.699931 0.710252 0.709929 0.694286 0.695892
          0.704062 0.709436 0.694473 0.703135 0.703011 0.706045
          0.709381 0.704526 0.700056 0.701504 0.703636 0.700322
          0.705157 0.6894 0.701318 0.696177 0.69194 0.692679
          0.688935 0.707991 0.677791 0.60136 0.698482 0.690192
          0.710002 0.698182 0.708313 0.696419 0.700742 0.696594
          0.683916 0.708555 0.691277 0.703016 0.686084 0.710132
          0.701108 0.699356 0.695089 0.711536 0.705101 0.681163
          0.700071 0.68675 0.690017 0.684464 0.69076 0.685386
          0.683485 0.692795 0.694885 0.720045 0.695349 0.69827
          0.588676 0.708606 0.696962 0.704136 0.70726 0.705514
          0.710069 0.686705 0.704402 0.702563 0.690942 0.68408
          0.713639 0.691523 0.702589 0.711081 0.699086 0.697166
          0.702805 0.712328 0.693668 0.706512 0.688043 0.693133
          0.695124 0.694525 0.692129 0.69353 0.692694 0.703668
          0.691285 0.694917 0.694 0.602493 0.723084 0.694949
          0.700884 0.694734 0.700665 0.698687 0.703243 0.699807
          0.695998 0.70647 0.69837 0.70585 0.703531 0.697209
          0.687629 0.723132 0.69079 0.694097 0.703403 0.713511
          0.707547 0.69531 0.715786 0.708202 0.713923 0.706152
          0.716173 0.707997 0.699087 0.699068 0.70378 0.713598
          0.602637 0.705517 0.69911 0.702725 0.706486 0.69757
          0.704399 0.697031 0.707433 0.692501 0.717797 0.695075
          0.689181 0.7156 0.700935 0.681828 0.702428 0.694449
          0.721223 0.703265 0.691822 0.698093 0.694921 0.691893
          0.697122 0.692946 0.687631 0.678008 0.682806 0.697444
          0.698229 0.69553 0.669046 0.599655 0.699237 0.702346
          0.70488 0.697931 0.705543 0.695299 0.704134 0.699196
          0.698828 0.696041 0.706123 0.68943 0.699861 0.704252
          0.697829 0.698522 0.686151 0.701088 0.707533 0.719271
          0.713558 0.709357 0.700639 0.711185 0.718752 0.703314
          0.712388 0.713252 0.707487 0.71093 0.703705 0.709998
          0.584222 0.677026 0.71486 0.686938 0.684646 0.685515
          0.6872 0.695698 0.69077 0.704548 0.68154 0.688307
          0.715222 0.696397 0.706155 0.686648 0.696434 0.701284
          0.690919 0.699494 0.716062 0.708087 0.708696 0.720595
          0.712849 0.713917 0.722288 0.715412 0.716092 0.714154
          0.707232 0.71236 0.729399 0.589514 0.687842 0.683004
          0.680961 0.686019 0.69728 0.68803 0.705619 0.691024
          0.706606 0.700401 0.691798 0.713882 0.68535 0.717055
          0.69463 0.713151 0.686295 0.695148 0.71053 0.70929
          0.717954 0.705444 0.695813 0.714118 0.713039 0.712372
          0.700976 0.708514 0.705503 0.699181 0.705105 0.699764
          0.581676 0.692902 0.683235 0.68792 0.693942 0.679639
          0.694372 0.697515 0.702769 0.700261 0.699691 0.70657
          0.685168 0.710797 0.685698 0.695331 0.700471 0.689216
          0.695858 0.704344 0.709751 0.717007 0.7117 0.702001
          0.693984 0.701 0.710595 0.698685 0.71185 0.71202
          0.70493 0.716917 0.719172 0.618569 0.710599 0.689048
          0.701282 0.708756 0.698084 0.69446 0.703369 0.713161
          0.695622 0.707606 0.708636 0.699769 0.706482 0.701201
          0.708919 0.699764 0.693491 0.688006 0.703035 0.704839
          0.704364 0.717131 0.693631 0.69641 0.708952 0.715137
          0.716278 0.712697 0.710825 0.713082 0.704522 0.714904
          0.584428 0.679411 0.710811 0.701129 0.700484 0.686286
          0.684104 0.682696 0.683876 0.694865 0.700568 0.681713
          0.700472 0.700957 0.72177 0.69073 0.696963 0.712216
          0.691226 0.701894 0.708214 0.691696 0.693286 0.693812
          0.70111 0.697856 0.686366 0.68818 0.686118 0.695201
          0.697993 0.689975 0.688725 0.610142 0.699071 0.702958
          0.706305 0.684969 0.696363 0.711298 0.700809 0.690318
          0.702279 0.703643 0.698548 0.702169 0.700455 0.720538
          0.689939 0.699039 0.699575 0.693759 0.693017 0.702322
          0.701561 0.680294 0.702115 0.696947 0.694421 0.708617
          0.704621 0.699906 0.693408 0.701059 0.691427 0.697125
          0.586756 0.68708 0.684401 0.705141 0.685956 0.69038
          0.70293 0.706932 0.699072 0.700557 0.685585 0.68394
          0.699733 0.699419 0.723168 0.694823 0.703901 0.698504
          0.694141 0.700962 0.69514 0.690548 0.698959 0.702161
          0.693487 0.698921 0.684432 0.698144 0.69683 0.687504
          0.6821 0.703508 0.706626 0.5789 0.700751 0.696219
          0.697804 0.679701 0.681365 0.686745 0.685225 0.694617
          0.701832 0.706427 0.684755 0.70958 0.690811 0.708515
          0.698252 0.695086 0.695243 0.690967 0.701385 0.712647
          0.709904 0.706043 0.724163 0.726825 0.716736 0.713279
          0.717094 0.712585 0.698077 0.69925 0.710333 0.708437
          0.586708 0.683862 0.705379 0.6919 0.683778 0.683964
          0.687732 0.706552 0.688845 0.710535 0.694244 0.695682
          0.703026 0.686367 0.698862 0.700296 0.712554 0.708624
          0.706553 0.704742 0.71163 0.710048 0.700445 0.708613
          0.691576 0.691108 0.687457 0.699387 0.689515 0.704677
          0.700811 0.682389 0.70379 0.594067 0.690407 0.68219
          0.688372 0.691618 0.694817 0.698554 0.684774 0.697539
          0.703996 0.711275 0.708354 0.694559 0.711487 0.70872
          0.706743 0.706344 0.696218 0.687647 0.707468 0.703904
          0.681772 0.707763 0.680232 0.687268 0.693323 0.688133
          0.687379 0.694537 0.687183 0.702419 0.692296 0.686021
          0.607407 0.707082 0.683817 0.699743 0.71281 0.7057
          0.702716 0.686178 0.710968 0.690547 0.695002 0.695258
          0.694619 0.710027 0.69906 0.721853 0.707014 0.679722
          0.707016 0.68981 0.692307 0.715601 0.69842 0.705422
          0.716229 0.718411 0.700997 0.691183 0.712896 0.70266
          0.719425 0.722398 0.721934 0.608285 0.698584 0.691724
          0.714545 0.695282 0.700128 0.696418 0.707013 0.704514
          0.696784 0.698612 0.705411 0.686928 0.704356 0.687074
          0.708765 0.714153 0.692159 0.695263 0.695787 0.710086
          0.687935 0.696768 0.699694 0.711839 0.705759 0.694079
          0.713159 0.726658 0.711779 0.722437 0.710658 0.714882
          0.586361 0.674034 0.700634 0.686925 0.678783 0.686053
          0.69542 0.704878 0.689621 0.701528 0.685473 0.691069
          0.699864 0.691524 0.709479 0.692996 0.709824 0.704558
          0.693069 0.699692 0.703856 0.701506 0.690195 0.707363
          0.704705 0.697798 0.714244 0.711318 0.703762 0.70335
          0.70212 0.696934 0.704409 0.599207 0.705356 0.687189
          0.694659 0.706367 0.709573 0.692176 0.70372 0.691098
          0.707206 0.697527 0.713652 0.694666 0.708748 0.700987
          0.698708 0.701973 0.696474 0.691359 0.68865 0.697596
          0.708361 0.700561 0.705157 0.707033 0.713167 0.697427
          0.716267 0.710715 0.701024 0.70877 0.713878 0.708158
          0.588568 0.681122 0.693014 0.689555 0.680293 0.675664
          0.687454 0.70589 0.695685 0.690872 0.698306 0.6988
          0.703124 0.692953 0.694891 0.71361 0.699102 0.691591
          0.690439 0.709273 0.703214 0.691121 0.687578 0.68557
          0.690811 0.673765 0.690466 0.693491 0.679133 0.693071
          0.693467 0.687189 0.693395 0.595799 0.703652 0.697205
          0.687197 0.717519 0.693333 0.701821 0.696513 0.702026
          0.692186 0.695252 0.707652 0.69922 0.701721 0.697569
          0.705613 0.689835 0.698014 0.698075 0.697097 0.683501
          0.693155 0.681514 0.693553 0.693235 0.70004 0.704725
          0.685588 0.704034 0.687159 0.687112 0.688966 0.689557
          0.615605 0.70084 0.702039 0.689032 0.7131 0.694636
          0.702117 0.705614 0.692402 0.695364 0.701555 0.710834
          0.686811 0.700835 0.709913 0.709853 0.700727 0.701477
          0.693417 0.700217 0.701392 0.698587 0.681013 0.689888
          0.692211 0.703356 0.684845 0.682012 0.692373 0.67803
          0.683046 0.705401 0.684862 0.612472 0.71391 0.700151
          0.696445 0.719309 0.681453 0.701486 0.703785 0.702671
          0.693599 0.695405 0.697957 0.696384 0.698461 0.687658
          0.685728 0.70925 0.685444 0.705739 0.697708 0.690389
          0.684249 0.673122 0.695382 0.689252 0.697238 0.68509
          0.698907 0.704932 0.696147 0.702151 0.680715 0.684724
          0.585318 0.681238 0.699963 0.693889 0.693924 0.684553
          0.689805 0.68508 0.686337 0.701659 0.694703 0.675939
          0.720554 0.694674 0.698916 0.692346 0.712061 0.709896
          0.697918 0.692831 0.71205 0.712312 0.711731 0.719853
          0.714622 0.718364 0.699997 0.723311 0.708293 0.707881
          0.712335 0.708964 0.708864 0.584874 0.674376 0.688429
          0.678505 0.677522 0.694253 0.696166 0.707716 0.693803
          0.714679 0.700834 0.697442 0.698767 0.705276 0.6955
          0.697475 0.699246 0.715659 0.690867 0.699381 0.685887
          0.695675 0.689699 0.690928 0.701132 0.692129 0.697093
          0.689932 0.691418 0.69418 0.685586 0.697434 0.685437
          0.581267 0.690965 0.707691 0.695029 0.69833 0.681715
          0.679623 0.691167 0.695203 0.695836 0.691128 0.696498
          0.696356 0.697491 0.702031 0.707894 0.704053 0.696613
          0.696489 0.704046 0.710961 0.728244 0.710533 0.714964
          0.703981 0.707503 0.718046 0.705523 0.709241 0.718037
          0.723198 0.702539 0.705828 0.585482 0.698597 0.705995
          0.689546 0.69207 0.695506 0.701039 0.689921 0.69311
          0.711847 0.687573 0.686326 0.707319 0.697203 0.700092
          0.696014 0.707905 0.706592 0.694845 0.706194 0.704531
          0.703265 0.700199 0.701956 0.708656 0.690793 0.690503
          0.690658 0.692637 0.686131 0.676143 0.694853 0.684659
          0.601704 0.694476 0.707145 0.704367 0.696023 0.695423
          0.707542 0.688944 0.691762 0.699792 0.697326 0.694893
          0.688948 0.692901 0.706595 0.702204 0.695943 0.708434
          0.700841 0.700266 0.701981 0.703962 0.701023 0.696823
          0.686008 0.704631 0.692686 0.707572 0.696263 0.698341
          0.70681 0.688372 0.687062 0.602414 0.688647 0.703134
          0.708627 0.695145 0.701769 0.69848 0.70623 0.681292
          0.694938 0.693531 0.68637 0.709769 0.702081 0.705332
          0.689924 0.690503 0.690948 0.694321 0.703164 0.706744
          0.686016 0.70043 0.696063 0.713467 0.713915 0.709125
          0.697495 0.706352 0.704172 0.685235 0.694358 0.698336
          0.608568 0.693918 0.695861 0.701244 0.682155 0.695506
          0.682345 0.699095 0.69134 0.680748 0.688356 0.693978
          0.702541 0.709752 0.687511 0.693057 0.70632 0.707756
          0.707851 0.696689 0.693481 0.699356 0.706279 0.697146
          0.707917 0.697332 0.68612 0.724122 0.719399 0.699903
          0.698394 0.695538 0.705923 0.599571 0.696303 0.676728
          0.682357 0.69621 0.6809 0.696045 0.688539 0.709418
          0.682525 0.694836 0.690325 0.686626 0.710459 0.70051
          0.696518 0.695954 0.700611 0.705635 0.715364 0.682518
          0.69036 0.702286 0.676665 0.687037 0.703165 0.690907
          0.687648 0.69269 0.678183 0.704114 0.687752 0.688783
          0.607514 0.718533 0.706634 0.699335 0.706121 0.711324
          0.692435 0.696678 0.70159 0.6995 0.703599 0.700312
          0.686986 0.703256 0.69627 0.705142 0.689572 0.692716
          0.700627 0.713232 0.672138 0.676366 0.680457 0.690497
          0.692812 0.692781 0.687669 0.688704 0.675229 0.696452
          0.696839 0.704199 0.691454 0.600171 0.698107 0.691049
          0.702356 0.687446 0.697537 0.69984 0.698549 0.687439
          0.69936 0.694783 0.702737 0.713631 0.693219 0.701668
          0.703758 0.694952 0.685168 0.699013 0.703175 0.694446
          0.709105 0.700127 0.699066 0.710268 0.696511 0.70066
          0.701962 0.697523 0.693974 0.680041 0.696806 0.689257
          0.61497 0.695268 0.713148 0.697888 0.696488 0.697784
          0.695791 0.692908 0.703786 0.699012 0.697915 0.695617
          0.703664 0.703008 0.702714 0.696097 0.704394 0.702452
          0.680332 0.687686 0.706284 0.709063 0.711591 0.712178
          0.71809 0.709816 0.705436 0.710315 0.724435 0.701978
          0.70572 0.712721 0.70447 0.582046 0.678491 0.686689
          0.686258 0.683534 0.684922 0.695215 0.682531 0.698366
          0.697147 0.694201 0.697524 0.704938 0.698481 0.694698
          0.693824 0.699721 0.714914 0.705588 0.694843 0.720677
          0.71933 0.708502 0.717386 0.707917 0.704477 0.706267
          0.713308 0.693508 0.708243 0.718288 0.72695 0.712215
          0.589671 0.678451 0.696795 0.673579 0.688647 0.694481
          0.697048 0.685857 0.698028 0.683578 0.690244 0.6993
          0.69905 0.706073 0.707596 0.692721 0.711038 0.692538
          0.701869 0.688025 0.706718 0.718337 0.706299 0.710173
          0.712706 0.710649 0.712261 0.713916 0.708309 0.71816
          0.70511 0.72027 0.71796 0.609079 0.715334 0.703874
          0.693042 0.695284 0.69735 0.711352 0.715007 0.690917
          0.691616 0.703974 0.693523 0.698356 0.695544 0.696757
          0.690874 0.711218 0.705562 0.698494 0.70228 0.703912
          0.706511 0.703935 0.70879 0.701289 0.718728 0.71543
          0.711263 0.701641 0.708668 0.694575 0.717411 0.7114
          0.608541 0.688512 0.714223 0.690054 0.702131 0.690305
          0.706911 0.701911 0.716942 0.68865 0.691886 0.709653
          0.71087 0.698767 0.702951 0.709471 0.697718 0.705782
          0.698199 0.69083 0.709169 0.711962 0.71646 0.707089
          0.716914 0.704274 0.720289 0.718549 0.694117 0.696272
          0.695042 0.698225 0.698146 0.594319 0.684786 0.674407
          0.687802 0.704765 0.685204 0.679064 0.710021 0.693012
          0.715799 0.685847 0.710524 0.700195 0.709856 0.700642
          0.697954 0.683948 0.713914 0.701646 0.712023 0.71354
          0.711641 0.706147 0.704362 0.703592 0.71407 0.701704
          0.701485 0.709084 0.713833 0.717367 0.700695 0.710077
          0.609083 0.696602 0.69808 0.697357 0.706761 0.702352
          0.695809 0.70557 0.688204 0.698611 0.698834 0.695613
          0.711993 0.694732 0.696449 0.712097 0.706927 0.703373
          0.695867 0.699204 0.727332 0.716994 0.706008 0.699804
          0.709973 0.695964 0.707577 0.718627 0.701809 0.706188
          0.71068 0.712779 0.711671 0.584125 0.674461 0.693958
          0.693489 0.687179 0.693469 0.679732 0.683882 0.70299
          0.708695 0.706307 0.705954 0.691525 0.697588 0.686162
          0.697038 0.707869 0.695031 0.713065 0.690249 0.716602
          0.7147 0.698556 0.698138 0.718428 0.72529 0.707515
          0.708697 0.711833 0.707788 0.693849 0.706262 0.710703
          0.608949 0.730496 0.691352 0.706971 0.699686 0.682084
          0.702643 0.687885 0.687212 0.693744 0.717652 0.704731
          0.691152 0.70738 0.696055 0.714217 0.702245 0.691069
          0.69759 0.701377 0.699642 0.703992 0.712325 0.70017
          0.71676 0.713983 0.70535 0.702477 0.699348 0.700809
          0.717809 0.709205 0.720943 0.597872 0.690755 0.700953
          0.706402 0.686538 0.689409 0.697547 0.705652 0.699062
          0.696469 0.693819 0.691072 0.710351 0.682598 0.713748
          0.703992 0.701599 0.71189 0.697085 0.696038 0.693886
          0.708717 0.701629 0.708487 0.705858 0.701281 0.706144
          0.711339 0.702151 0.693823 0.695362 0.69899 0.703092
          0.599083 0.695027 0.690771 0.703006 0.68841 0.694035
          0.706224 0.703418 0.698873 0.707934 0.701738 0.695186
          0.710592 0.703292 0.708639 0.710049 0.692916 0.697455
          0.695253 0.694413 0.689682 0.713183 0.707449 0.710121
          0.694103 0.693243 0.690386 0.693919 0.693834 0.694521
          0.693888 0.691184 0.687886 0.619263 0.706133 0.70175
          0.703832 0.69835 0.707646 0.696754 0.699403 0.706798
          0.703234 0.696235 0.710196 0.689111 0.709175 0.704351
          0.70546 0.702992 0.681122 0.709819 0.711732 0.693496
          0.700043 0.685431 0.682631 0.697353 0.703973 0.694532
          0.705562 0.69445 0.696701 0.694443 0.696347 0.699306
          0.60225 0.699109 0.70454 0.708249 0.697322 0.692944
          0.703245 0.698483 0.705871 0.699796 0.688844 0.705905
          0.69495 0.709142 0.691278 0.704753 0.70694 0.684897
          0.704213 0.714187 0.696235 0.68725 0.711245 0.685621