<?xml version="1.0"?>
<VTKFile type="PolyData" version="0.1" byte_order="LittleEndian" header_type="UInt32" compressor="vtkZLibDataCompressor">
  <PolyData>
    <Piece NumberOfPoints="7920" NumberOfVerts="0" NumberOfLines="0" NumberOfStrips="0" NumberOfPolys="0">
      <PointData Scalars="Calcium Concentration">
        <DataArray type="Float32" Name="Calcium Concentration" format="ascii" RangeMin="0.5261139869689941" RangeMax="0.7308570146560669">
          0.548316 0.709843 0.70019 0.697105 0.701245 0.696234
          0.693864 0.713513 0.695919 0.682431 0.701281 0.695982
          0.69451 0.70477 0.693348 0.707546 0.69302 0.703802
          0.705119 0.701799 0.691333 0.676248 0.688142 0.690158
          0.684992 0.688546 0.695426 0.685974 0.686202 0.69347
          0.701301 0.686464 0.683195 0.55738 0.701081 0.700806
          0.700464 0.693684 0.694884 0.702953 0.709298 0.705173
          0.706567 0.690249 0.705877 0.693094 0.697099 0.710729
          0.684544 0.70064 0.696579 0.693936 0.708104 0.691749
          0.702168 0.68328 0.68002 0.681101 0.699807 0.707933
          0.686247 0.686864 0.69909 0.694771 0.688455 0.684606
          0.550873 0.687937 0.696387 0.678189 0.683893 0.690384
          0.695576 0.69849 0.698984 0.701532 0.701474 0.698444
          0.694921 0.702125 0.718447 0.702817 0.706685 0.714076
          0.720655 0.704487 0.708498 0.705831 0.711488 0.698873
          0.704301 0.712316 0.711028 0.70449 0.708212 0.708582
          0.704641 0.705191 0.709537 0.559232 0.693042 0.71278
          0.699995 0.700485 0.685726 0.714667 0.69629 0.708155
          0.704648 0.693882 0.694816 0.696154 0.698079 0.702729
          0.703424 0.701801 0.688393 0.705332 0.707506 0.703954
          0.687888 0.6956 0.69519 0.690302 0.714535 0.703768
          0.696646 0.700122 0.690071 0.697012 0.700238 0.695479
          0.549047 0.684837 0.684627 0.694996 0.685927 0.691506
          0.692448 0.694335 0.688821 0.704694 0.706825 0.695929
          0.705951 0.700581 0.695805 0.702326 0.708501 0.685324
          0.707499 0.699884 0.698741 0.693189 0.689464 0.686747
          0.692256 0.687945 0.678615 0.699905 0.697358 0.699411
          0.689174 0.697071 0.699157 0.567121 0.703113 0.700735
          0.699095 0.687511 0.707307 0.689265 0.701789 0.712861
          0.702431 0.691035 0.702005 0.694617 0.700628 0.702882
          0.701435 0.710021 0.693575 0.721315 0.697109 0.699172
          0.704634 0.706152 0.698629 0.701838 0.719445 0.708124
          0.694018 0.699555 0.716756 0.712571 0.703804 0.703432
          0.548209 0.682722 0.690575 0.687558 0.675647 0.692883
          0.683724 0.694346 0.712294 0.704854 0.687049 0.689088
          0.703088 0.714269 0.696531 0.701756 0.698497 0.697955
          0.698737 0.687307 0.707992 0.705969 0.699611 0.697667
          0.695816 0.716272 0.713212 0.716569 0.710325 0.696527
          0.715049 0.714146 0.716004 0.543419 0.682128 0.676448
          0.700142 0.687717 0.699809 0.680457 0.664133 0.708839
          0.696993 0.69414 0.718741 0.704341 0.703373 0.702654
          0.692903 0.699666 0.709824 0.70862 0.696891 0.688265
          0.688687 0.692318 0.688413 0.696863 0.696145 0.702012
          0.68726 0.686019 0.680119 0.703826 0.680306 0.684141
          0.545421 0.686878 0.685014 0.695269 0.689276 0.693613
          0.681992 0.701752 0.699666 0.700916 0.702996 0.708599
          0.705737 0.704527 0.703666 0.701406 0.712468 0.692756
          0.699449 0.687398 0.703229 0.701585 0.702364 0.704354
          0.717397 0.716827 0.701632 0.7009 0.708188 0.698887
          0.722351 0.706015 0.719124 0.564086 0.706636 0.699533
          0.699825 0.694815 0.694581 0.698265 0.701534 0.701068
          0.702619 0.718863 0.693701 0.693462 0.71019 0.687854
          0.698075 0.703001 0.698465 0.697595 0.694077 0.6976
          0.703219 0.702507 0.699247 0.714141 0.714795 0.715183
          0.702068 0.702563 0.706206 0.709326 0.702926 0.707442
          0.574183 0.708189 0.692879 0.707043 0.697373 0.702053
          0.710741 0.691595 0.693798 0.700739 0.703782 0.703675
          0.708238 0.695392 0.688592 0.706738 0.697738 0.712316
          0.698558 0.695753 0.711257 0.708316 0.722127 0.70764
          0.695711 0.712983 0.722981 0.698742 0.695445 0.706017
          0.716575 0.720518 0.720824 0.549091 0.684042 0.691494
          0.688618 0.672303 0.684741 0.691057 0.709511 0.697868
          0.696416 0.690376 0.699133 0.70931 0.703007 0.695572
          0.700322 0.707008 0.709155 0.702285 0.711249 0.689676
          0.688888 0.685724 0.683855 0.68002 0.691442 0.689733
          0.690244 0.686275 0.695702 0.689864 0.68923 0.694176
          0.568304 0.700028 0.689964 0.714039 0.685105 0.704268
          0.717459 0.702447 0.699095 0.690276 0.698867 0.699548
          0.710801 0.700313 0.693505 0.704772 0.698474 0.702489
          0.693281 0.712063 0.686762 0.699421 0.695722 0.67965
          0.697527 0.694459 0.686809 0.692001 0.701227 0.690125
          0.7025 0.695401 0.691 0.558031 0.687187 0.686743
          0.697295 0.705737 0.69207 0.700909 0.705701 0.691625
          0.704536 0.698276 0.704573 0.701868 0.696685 0.701955
          0.701194 0.691409 0.70419 0.714877 0.689854 0.692132
          0.700469 0.680696 0.687481 0.689678 0.695303 0.68419
          0.69249 0.700915 0.689876 0.68416 0.692219 0.689705
          0.543879 0.681159 0.689124 0.693456 0.692051 0.677923
          0.688134 0.696295 0.682578 0.700159 0.695298 0.69039
          0.703122 0.711399 0.706947 0.687587 0.7066 0.703415
          0.695522 0.699152 0.70926 0.702119 0.701771 0.705838
          0.708569 0.708302 0.720823 0.718404 0.714833 0.713333
          0.705692 0.713719 0.724401 0.539557 0.693894 0.690066
          0.702736 0.706527 0.708725 0.696464 0.697756 0.685797
          0.700324 0.691376 0.691119 0.701896 0.715199 0.701808
          0.694654 0.692195 0.704804 0.691872 0.697767 0.686634
          0.683525 0.694538 0.690668 0.689848 0.686826 0.690823
          0.686889 0.687417 0.687523 0.692858 0.680212 0.685127
          0.549107 0.684343 0.682989 0.682319 0.687466 0.697887
          0.692314 0.691644 0.687838 0.693886 0.696414 0.696317
          0.703066 0.702587 0.701944 0.700189 0.693766 0.714739
          0.694432 0.693664 0.679462 0.679711 0.694354 0.690484
          0.700809 0.692381 0.69358 0.6938 0.699562 0.706153
          0.700463 0.685717 0.694245 0.539513 0.698143 0.679496
          0.6736 0.691506 0.687678 0.680886 0.71841 0.699903
          0.684417 0.699465 0.698115 0.692428 0.717862 0.689554
          0.715785 0.693603 0.699266 0.705018 0.700812 0.704199
          0.71796 0.702839 0.704573 0.707978 0.713783 0.701229
          0.702881 0.703405 0.701513 0.719791 0.706439 0.716649
          0.542046 0.684733 0.682502 0.682212 0.689369 0.677723
          0.684016 0.696123 0.689909 0.699929 0.703099 0.709872
          0.712534 0.694732 0.698669 0.700997 0.695159 0.710377
          0.700787 0.703427 0.689734 0.688745 0.682476 0.692852
          0.695797 0.694069 0.692868 0.688233 0.696737 0.688037
          0.706635 0.695814 0.710316 0.56218 0.695889 0.698257
          0.691197 0.708398 0.684226 0.709351 0.698038 0.70104
          0.697804 0.702972 0.708765 0.701255 0.715116 0.691699
          0.698225 0.690733 0.695904 0.707081 0.698276 0.690965
          0.694338 0.694938 0.683479 0.689997 0.684629 0.693607
          0.689552 0.684477 0.690976 0.691047 0.688399 0.686883
          0.555437 0.714167 0.700964 0.703088 0.711534 0.688462
          0.693077 0.709298 0.708404 0.692687 0.715678 0.699334
          0.693914 0.711727 0.69652 0.699663 0.700175 0.694181
          0.708925 0.699951 0.686304 0.691291 0.675727 0.693951
          0.690939 0.697326 0.682453 0.696633 0.693802 0.699875
          0.693447 0.681364 0.690823 0.562107 0.692519 0.697538
          0.685219 0.702231 0.704853 0.720899 0.691735 0.707901
          0.702057 0.684264 0.701823 0.70062 0.69934 0.711545
          0.694248 0.708712 0.692194 0.699371 0.698796 0.714634
          0.708055 0.712734 0.705982 0.696372 0.708039 0.721686
          0.695516 0.721337 0.708876 0.710983 0.705563 0.698578
          0.555167 0.704651 0.68979 0.714851 0.696407 0.696319
          0.705209 0.702827 0.702283 0.702951 0.702545 0.704255
          0.689286 0.721442 0.692228 0.714664 0.700287 0.688729
          0.705274 0.689396 0.722111 0.700543 0.712638 0.695718
          0.704273 0.715623 0.704308 0.702554 0.718368 0.714922
          0.718681 0.705767 0.70439 0.573076 0.706621 0.692625
          0.698778 0.714526 0.696492 0.701584 0.711823 0.704012
          0.701122 0.701776 0.696293 0.700989 0.712214 0.706717
          0.701299 0.69033 0.708508 0.685809 0.686745 0.702966
          0.707569 0.722141 0.706336 0.705776 0.723939 0.707567
          0.723628 0.726792 0.710963 0.718127 0.700339 0.706729
          0.550452 0.693101 0.691629 0.707799 0.710211 0.693737
          0.695072 0.696285 0.705191 0.711808 0.69814 0.700194
          0.70141 0.702272 0.713719 0.691609 0.707536 0.699744
          0.707166 0.708315 0.690192 0.691067 0.688181 0.690343
          0.696531 0.710645 0.695434 0.693041 0.693009 0.702116
          0.692142 0.681725 0.693421 0.564107 0.693296 0.703717
          0.692173 0.690506 0.691107 0.713339 0.696856 0.701784
          0.70411 0.700729 0.693687 0.69674 0.694458 0.707212
          0.69602 0.70296 0.69629 0.711669 0.698362 0.697075
          0.690049 0.684214 0.686271 0.687306 0.690263 0.690713
          0.697916 0.700126 0.702904 0.685223 0.69283 0.698119
          0.553879 0.70501 0.697234 0.701052 0.69361 0.697221
          0.697981 0.706281 0.710466 0.70753 0.691335 0.708839
          0.694665 0.713831 0.682066 0.705479 0.693867 0.702746
          0.706412 0.700233 0.689281 0.692402 0.685011 0.676647
          0.692387 0.687166 0.686891 0.68359 0.684638 0.692262
          0.693218 0.684713 0.686913 0.546232 0.696357 0.685997
          0.685321 0.708054 0.702326 0.695529 0.696162 0.695959
          0.696813 0.703076 0.695139 0.699343 0.713761 0.709866
          0.704034 0.701816 0.685071 0.719622 0.69979 0.680621
          0.695086 0.694707 0.688928 0.69644 0.690132 0.689614
          0.684415 0.689311 0.704371 0.699436 0.69202 0.690668
          0.551537 0.702175 0.700779 0.714856 0.699985 0.695213
          0.697849 0.702863 0.688077 0.711268 0.699287 0.69421
          0.712327 0.691754 0.716238 0.705926 0.696564 0.71999
          0.700182 0.694852 0.694093 0.687982 0.686629 0.693996
          0.689156 0.67877 0.689469 0.697508 0.702966 0.682355
          0.689059 0.69513 0.696494 0.555678 0.706116 0.700655
          0.693493 0.711473 0.690682 0.709803 0.688106 0.710072
          0.700128 0.703787 0.699708 0.688566 0.718585 0.696932
          0.696467 0.702641 0.69505 0.713652 0.684084 0.693871
          0.686582 0.674016 0.705955 0.689808 0.693684 0.684352
          0.691942 0.705131 0.708966 0.691592 0.692642 0.691774
          0.544169 0.688777 0.698948 0.699395 0.689892 0.682886
          0.68973 0.701381 0.685152 0.710838 0.696666 0.702393
          0.696594 0.704548 0.68953 0.708481 0.698484 0.698019
          0.69944 0.6972 0.711672 0.711774 0.709536 0.708683
          0.726613 0.715701 0.71262 0.698381 0.706951 0.711511
          0.6965 0.714231 0.706573 0.539703 0.6841 0.687271
          0.687648 0.695615 0.688283 0.703542 0.695607 0.681405
          0.683707 0.707176 0.714129 0.700926 0.711403 0.697709
          0.700637 0.689887 0.692395 0.699468 0.697399 0.716558
          0.718008 0.697923 0.689032 0.70855 0.709325 0.703275
          0.711556 0.702794 0.704365 0.720797 0.721617 0.710918
          0.558641 0.712375 0.689288 0.695725 0.701053 0.703886
          0.703506 0.682688 0.707529 0.706009 0.713032 0.685359
          0.700126 0.713629 0.703954 0.696928 0.694344 0.691599
          0.702863 0.687087 0.703863 0.714077 0.703978 0.700078
          0.697984 0.719137 0.705408 0.706162 0.709001 0.709944
          0.717328 0.714199 0.701738 0.542952 0.67915 0.675526
          0.698294 0.673127 0.698127 0.696295 0.698933 0.686989
          0.710089 0.696335 0.690787 0.701008 0.707348 0.696979
          0.691257 0.68663 0.712154 0.704232 0.702742 0.694864
          0.702835 0.690536 0.69867 0.701762 0.688696 0.690421
          0.696724 0.6902 0.686907 0.693715 0.686449 0.691558
          0.55125 0.700794 0.703212 0.67791 0.681858 0.683877
          0.704406 0.685781 0.696592 0.698684 0.698715 0.700135
          0.702271 0.702221 0.702977 0.694358 0.706911 0.701581
          0.698803 0.711086 0.694529 0.702699 0.680632 0.704326
          0.684485 0.685888 0.703762 0.694523 0.682403 0.697213
          0.691319 0.691291 0.688444 0.536753 0.677841 0.703044
          0.704021 0.682139 0.684327 0.691689 0.703213 0.69423
          0.698764 0.687773 0.6945 0.693907 0.688773 0.692337
          0.69517 0.704481 0.705937 0.699411 0.698165 0.704792
          0.70878 0.695444 0.712456 0.703225 0.704198 0.693133
          0.693054 0.69366 0.705514 0.696437 0.683604 0.699842
          0.542871 0.685895 0.706174 0.698511 0.703804 0.697178
          0.701817 0.699782 0.687801 0.704392 0.700048 0.702814
          0.711111 0.713225 0.699763 0.693662 0.709039 0.69779
          0.706594 0.704327 0.702111 0.687318 0.697545 0.675811
          0.696163 0.690848 0.687272 0.689282 0.704538 0.699162
          0.674866 0.681514 0.692907 0.542182 0.665455 0.698445
          0.686412 0.677249 0.694667 0.687068 0.692708 0.690636
          0.698573 0.691359 0.708268 0.713345 0.709355 0.693125
          0.706605 0.709484 0.710634 0.691868 0.698026 0.709904
          0.698274 0.7239 0.702864 0.707319 0.710244 0.730857
          0.723753 0.710708 0.694029 0.701411 0.708071 0.72219
          0.565784 0.704175 0.705465 0.708212 0.681759 0.707236
          0.701483 0.699713 0.709422 0.699864 0.693927 0.703929
          0.705744 0.712603 0.696874 0.701915 0.703729 0.69838
          0.706136 0.705306 0.701576 0.705414 0.692687 0.707014
          0.703814 0.693574 0.711281 0.691985 0.698475 0.701429
          0.695302 0.70889 0.683698 0.556483 0.699003 0.693857
          0.718166 0.695112 0.698547 0.703539 0.697802 0.711637
          0.694811 0.699795 0.69323 0.71075 0.694537 0.715582
          0.702086 0.687381 0.695726 0.703218 0.698447 0.694662
          0.710203 0.690326 0.693932 0.684431 0.695129 0.68366
          0.681688 0.699457 0.689582 0.702983 0.694974 0.695677
          0.539071 0.693876 0.687721 0.691749 0.704797 0.691075
          0.698084 0.688376 0.701127 0.700193 0.693218 0.698824
          0.716234 0.694399 0.69661 0.706254 0.704097 0.692891
          0.699326 0.710387 0.695684 0.708391 0.693332 0.697592
          0.687158 0.685054 0.686987 0.695412 0.69163 0.699555
          0.680513 0.691203 0.692462 0.560162 0.71325 0.700808
          0.699295 0.689529 0.7133 0.698899 0.701399 0.696602
          0.695451 0.707022 0.682118 0.704572 0.712044 0.684405
          0.693074 0.699127 0.690337 0.692237 0.715198 0.714267
          0.713372 0.700639 0.710767 0.701627 0.719802 0.704254
          0.707584 0.709251 0.715652 0.703821 0.709387 0.707887
          0.556508 0.707328 0.694967 0.697828 0.701923 0.690948
          0.707727 0.700409 0.701581 0.693651 0.708604 0.697826
          0.689909 0.719513 0.698371 0.687472 0.70172 0.705045
          0.712222 0.698062 0.687078 0.691698 0.692355 0.685527
          0.695918 0.706418 0.699428 0.6862 0.682606 0.704205
          0.697051 0.701874 0.680319 0.555081 0.70608 0.705793
          0.699927 0.699893 0.700378 0.694946 0.698713 0.704577
          0.703739 0.704806 0.695811 0.69424 0.711859 0.706067
          0.698039 0.693233 0.693923 0.708606 0.703536 0.719295
          0.707956 0.703776 0.703143 0.709006 0.720267 0.710216
          0.724059 0.700121 0.703882 0.709408 0.69427 0.717203
          0.541009 0.666296 0.703731 0.697782 0.684273 0.687998
          0.686007 0.696808 0.701142 0.703029 0.685733 0.691178
          0.693016 0.692604 0.704592 0.69304 0.700268 0.701541
          0.699388 0.696437 0.718423 0.700016 0.711559 0.724305
          0.717922 0.717153 0.716966 0.719894 0.715169 0.70667
          0.708834 0.720569 0.728577 0.543837 0.689953 0.685527
          0.684966 0.685025 0.694857 0.691474 0.701951 0.691456
          0.702717 0.702976 0.695024 0.709906 0.693068 0.70079
          0.699869 0.710838 0.699421 0.690504 0.705268 0.701603
          0.714122 0.702584 0.694736 0.703524 0.721202 0.71512
          0.705086 0.707691 0.712637 0.705253 0.714707 0.703501
          0.542601 0.682905 0.673467 0.688512 0.687431 0.689246
          0.696365 0.688 0.695527 0.709916 0.698641 0.701357
          0.701157 0.707984 0.704953 0.700282 0.688663 0.696763
          0.703977 0.69861 0.707184 0.719124 0.715493 0.708535
          0.696991 0.707792 0.702282 0.702859 0.720511 0.718717
          0.701904 0.70997 0.714269 0.564362 0.711111 0.699107
          0.716477 0.707722 0.703582 0.692613 0.700621 0.69927
          0.692977 0.710054 0.697509 0.706686 0.716839 0.703427
          0.708465 0.682384 0.692303 0.689815 0.694712 0.709567
          0.709317 0.706231 0.698197 0.700093 0.705205 0.709277
          0.710942 0.711124 0.706695 0.710937 0.705189 0.70818
          0.543846 0.679687 0.707995 0.687137 0.688019 0.683785
          0.689586 0.677512 0.687432 0.695871 0.694549 0.688191
          0.703263 0.700311 0.705295 0.69809 0.689675 0.698666
          0.699243 0.708238 0.698135 0.694471 0.683638 0.693344
          0.700705 0.708619 0.684102 0.684173 0.69112 0.700365
          0.696001 0.693449 0.685871 0.57016 0.698028 0.697505
          0.714361 0.684387 0.704634 0.707572 0.697633 0.688107
          0.709518 0.714505 0.69641 0.705548 0.688841 0.715516
          0.690279 0.707677 0.701524 0.696928 0.695262 0.695693
          0.689108 0.684264 0.68779 0.691975 0.696186 0.713496
          0.715966 0.703965 0.697516 0.694446 0.698374 0.698047
          0.550475 0.675798 0.687546 0.702324 0.682313 0.68771
          0.69349 0.707877 0.69597 0.696294 0.681735 0.684022
          0.699239 0.711079 0.708741 0.695499 0.703268 0.702511
          0.696182 0.712772 0.692836 0.69333 0.697017 0.699352
          0.692025 0.691637 0.687673 0.696376 0.695923 0.692142
          0.684917 0.705492 0.704979 0.543366 0.68621 0.700014
          0.687906 0.686507 0.681704 0.67004 0.691649 0.692449
          0.70544 0.693987 0.690366 0.712789 0.690711 0.706611
          0.703714 0.693444 0.695097 0.688886 0.708528 0.709316
          0.714398 0.705608 0.728043 0.727852 0.706599 0.717907
          0.715315 0.709051 0.700569 0.7037 0.715448 0.72138
          0.544547 0.672654 0.694991 0.688413 0.686708 0.67872
          0.677078 0.702955 0.688798 0.698672 0.699773 0.686489
          0.699596 0.680092 0.695377 0.712403 0.705089 0.704647
          0.696418 0.711516 0.709877 0.707194 0.695687 0.701732
          0.693145 0.692312 0.68779 0.703954 0.690764 0.690906
          0.696985 0.686553 0.706843 0.531607 0.680808 0.681302
          0.688007 0.684622 0.685488 0.694017 0.683901 0.695127
          0.69431 0.706767 0.714402 0.687391 0.713754 0.695471
          0.704456 0.695285 0.691086 0.697155 0.698682 0.70324
          0.690232 0.704167 0.681177 0.690967 0.701623 0.694832
          0.690862 0.689875 0.681844 0.688579 0.692572 0.686893
          0.550919 0.702525 0.675253 0.700426 0.708731 0.702549
          0.696267 0.690431 0.70517 0.69455 0.702306 0.700421
          0.697736 0.712512 0.693654 0.712272 0.6973 0.694986
          0.713934 0.688818 0.69857 0.716571 0.694656 0.700049
          0.711176 0.725645 0.707784 0.698549 0.708773 0.703897
          0.716342 0.716917 0.719564 0.561245 0.702916 0.681635
          0.708094 0.693377 0.709797 0.699999 0.697937 0.710298
          0.691006 0.705953 0.704712 0.699485 0.713327 0.686928
          0.706944 0.707586 0.686568 0.705917 0.699765 0.715584
          0.686038 0.692889 0.706738 0.726001 0.708929 0.695226
          0.701369 0.723374 0.70448 0.722006 0.710786 0.713383
          0.546999 0.679256 0.703374 0.69257 0.69102 0.687349
          0.681294 0.69458 0.691793 0.705965 0.695929 0.696911
          0.699705 0.682385 0.706509 0.699367 0.711964 0.702307
          0.69314 0.695097 0.710727 0.702099 0.685933 0.696045
          0.698796 0.695993 0.714924 0.699174 0.703422 0.706195
          0.691537 0.705773 0.708279 0.556953 0.701338 0.679369
          0.690322 0.706911 0.697608 0.689016 0.708993 0.698376
          0.70092 0.691224 0.71329 0.69671 0.706557 0.697822
          0.705029 0.698863 0.71129 0.699232 0.697103 0.70129
          0.708804 0.70504 0.702648 0.704118 0.708757 0.706288
          0.709099 0.706041 0.703603 0.708495 0.707612 0.708142
          0.548239 0.686145 0.693341 0.687617 0.683762 0.686085
          0.689252 0.712915 0.684245 0.694863 0.701434 0.69619
          0.69781 0.69383 0.699025 0.701813 0.689374 0.69839
          0.690572 0.709183 0.689704 0.687565 0.688614 0.683892
          0.699183 0.674907 0.69016 0.693883 0.685665 0.693407
          0.687511 0.691136 0.687611 0.543844 0.694467 0.69272
          0.686776 0.716091 0.700186 0.711531 0.700727 0.707407
          0.70544 0.69627 0.708957 0.705569 0.702093 0.703443
          0.696221 0.697474 0.698833 0.699835 0.704247 0.679271
          0.692964 0.684607 0.682391 0.688483 0.702355 0.703278
          0.689115 0.697151 0.692866 0.696084 0.692436 0.692827
          0.56747 0.705698 0.699267 0.694811 0.717909 0.697509
          0.708803 0.70143 0.69198 0.705068 0.701548 0.703167
          0.69059 0.697733 0.717076 0.700961 0.707015 0.698128
          0.700436 0.698063 0.712153 0.696416 0.677611 0.694608
          0.693977 0.702928 0.685133 0.679852 0.695684 0.679834
          0.692831 0.712144 0.687182 0.567993 0.715435 0.691192
          0.696471 0.706341 0.684033 0.700186 0.712437 0.702016
          0.697121 0.697902 0.697638 0.702454 0.701573 0.699028
          0.693948 0.697581 0.691263 0.708269 0.701373 0.688535
          0.679249 0.682507 0.695973 0.683358 0.706793 0.686596
          0.70011 0.698566 0.69201 0.707777 0.677714 0.687751
          0.538085 0.668792 0.703036 0.692451 0.691762 0.682022
          0.679482 0.689404 0.687049 0.699316 0.699155 0.68969
          0.721881 0.700557 0.701343 0.695138 0.699474 0.693954
          0.699259 0.698771 0.698506 0.718054 0.716983 0.714088
          0.713503 0.70565 0.707522 0.71853 0.70559 0.710515
          0.714786 0.721629 0.710048 0.535816 0.674801 0.69113
          0.681712 0.678027 0.680558 0.692804 0.7088 0.694931
          0.716746 0.693397 0.692935 0.694521 0.705123 0.698243
          0.700869 0.694363 0.713785 0.688911 0.70251 0.6839
          0.693671 0.689913 0.688064 0.704 0.691029 0.698468
          0.687591 0.682564 0.69076 0.693991 0.689376 0.683039
          0.542163 0.687231 0.698504 0.688363 0.700193 0.683702
          0.683997 0.697786 0.687791 0.697398 0.699907 0.700204
          0.691664 0.702193 0.698886 0.70731 0.700955 0.694548
          0.704558 0.69447 0.714911 0.729175 0.711539 0.715966
          0.716428 0.71753 0.715298 0.706662 0.715775 0.718746
          0.716104 0.708919 0.700495 0.544666 0.693333 0.710855
          0.691613 0.707908 0.693101 0.684158 0.697034 0.690193
          0.708428 0.686507 0.693361 0.698861 0.692063 0.69284
          0.696389 0.709162 0.716337 0.687535 0.703366 0.690604
          0.700009 0.706786 0.709781 0.696521 0.691848 0.690363
          0.70215 0.687355 0.691212 0.677402 0.696037 0.68455
          0.5642 0.69808 0.707812 0.692952 0.698668 0.689944
          0.705659 0.695344 0.693846 0.704404 0.694191 0.6952
          0.694854 0.699044 0.70464 0.710201 0.691095 0.715012
          0.698497 0.693017 0.684852 0.69528 0.700329 0.696021
          0.693367 0.702163 0.695504 0.69571 0.686546 0.700667
          0.705769 0.683205 0.701573 0.55834 0.684557 0.700743
          0.695325 0.703936 0.712444 0.688001 0.706861 0.692198
          0.701833 0.694506 0.694627 0.708108 0.693127 0.703431
          0.689905 0.689504 0.694739 0.695258 0.705077 0.706422
          0.688039 0.694212 0.687477 0.701525 0.700866 0.705818
          0.698171 0.702193 0.698978 0.687972 0.686816 0.695891
          0.566107 0.695254 0.691597 0.696507 0.683707 0.705959
          0.692517 0.693922 0.688231 0.677107 0.68229 0.693748
          0.708434 0.711253 0.691851 0.682262 0.706071 0.713765
          0.698873 0.69184 0.692594 0.698398 0.702444 0.695949
          0.714075 0.702372 0.680312 0.712857 0.718398 0.704038
          0.695314 0.693562 0.711433 0.547527 0.688264 0.676036
          0.69142 0.689123 0.687594 0.69436 0.688483 0.711124
          0.68622 0.690976 0.69088 0.69765 0.708889 0.699632
          0.704914 0.689769 0.699317 0.703212 0.704723 0.681875
          0.698082 0.694848 0.67893 0.689405 0.69888 0.697081
          0.690931 0.69093 0.692919 0.689095 0.68954 0.683341
          0.561249 0.717849 0.702721 0.700536 0.710251 0.704609
          0.696571 0.702877 0.698517 0.70289 0.702882 0.699448
          0.702657 0.705431 0.699959 0.69063 0.690889 0.704384
          0.698112 0.718036 0.681589 0.679809 0.685319 0.68768
          0.69426 0.693225 0.680654 0.697967 0.682702 0.689674
          0.695583 0.701166 0.689431 0.569004 0.684921 0.700792
          0.709385 0.678311 0.694085 0.702171 0.701257 0.692021
          0.708047 0.700453 0.699767 0.713367 0.697228 0.704919
          0.709596 0.702895 0.692034 0.694707 0.704804 0.690819
          0.703766 0.696574 0.702166 0.70483 0.683059 0.701211
          0.70282 0.700785 0.704779 0.691149 0.706059 0.701
          0.564232 0.696064 0.717992 0.693733 0.6879 0.705821
          0.693802 0.692403 0.69296 0.703459 0.695966 0.704435
          0.69738 0.694002 0.699396 0.689258 0.709514 0.707717
          0.679854 0.694862 0.699713 0.713688 0.705085 0.719431
          0.725653 0.703539 0.719713 0.708437 0.7236 0.696311
          0.706267 0.715789 0.705478 0.54022 0.680636 0.692339
          0.694969 0.681638 0.683934 0.691081 0.686945 0.704196
          0.688637 0.696356 0.694082 0.72306 0.695191 0.695024
          0.697157 0.698859 0.694294 0.694744 0.69588 0.707576
          0.712939 0.716069 0.721215 0.709492 0.703192 0.713313
          0.71092 0.691762 0.704073 0.717376 0.712462 0.713162
          0.549036 0.681504 0.697682 0.677233 0.695026 0.693733
          0.687655 0.691055 0.69504 0.681313 0.690081 0.703566
          0.70304 0.702172 0.711773 0.695937 0.70539 0.703695
          0.710116 0.689386 0.713458 0.725827 0.706574 0.710983
          0.716227 0.70833 0.714501 0.705093 0.717681 0.719258
          0.709716 0.716084 0.723028 0.559935 0.703264 0.712275
          0.695739 0.702546 0.706249 0.70895 0.703779 0.687352
          0.699853 0.706815 0.696579 0.703446 0.701276 0.699514
          0.69372 0.702193 0.70688 0.716307 0.70132 0.704938
          0.704114 0.697933 0.703118 0.711655 0.721336 0.710286
          0.71091 0.69479 0.707918 0.704652 0.720443 0.711724
          0.564906 0.676246 0.701867 0.690845 0.694438 0.687744
          0.708133 0.699656 0.715692 0.683147 0.686459 0.712127
          0.711092 0.697997 0.709258 0.706932 0.707132 0.705228
          0.6981 0.683748 0.697771 0.714718 0.715669 0.709931
          0.717399 0.699986 0.722275 0.72554 0.704513 0.704633
          0.695691 0.701218 0.693189 0.561108 0.690261 0.683206
          0.683074 0.698219 0.67807 0.686243 0.708154 0.697168
          0.71386 0.691226 0.705789 0.690532 0.706154 0.703303
          0.705932 0.677595 0.712859 0.701058 0.709983 0.717288
          0.712819 0.709274 0.704274 0.708275 0.71834 0.697575
          0.694293 0.703159 0.714006 0.727875 0.706591 0.711365
          0.565461 0.691052 0.693786 0.692084 0.699872 0.706299
          0.69538 0.698817 0.683988 0.698425 0.693974 0.693722
          0.694021 0.704755 0.695856 0.697817 0.701655 0.704641
          0.692944 0.702593 0.722548 0.718073 0.708026 0.697268
          0.713316 0.694584 0.705949 0.713329 0.700446 0.706419
          0.706218 0.710227 0.71471 0.552271 0.67554 0.686523
          0.69424 0.678806 0.698262 0.688312 0.690743 0.697992
          0.71458 0.701559 0.703415 0.702079 0.705233 0.690413
          0.694876 0.713021 0.693813 0.7169 0.690842 0.718065
          0.708649 0.698015 0.69952 0.718874 0.723738 0.705771
          0.712873 0.712174 0.706799 0.696635 0.706762 0.705459
          0.556629 0.717077 0.687726 0.705442 0.697003 0.687967
          0.704305 0.692163 0.675477 0.697118 0.707081 0.715976
          0.69112 0.720236 0.691348 0.720352 0.698768 0.690303
          0.695083 0.694219 0.702665 0.703348 0.717744 0.702629
          0.721372 0.71326 0.696844 0.699238 0.700148 0.701233
          0.71686 0.710666 0.717452 0.551418 0.677372 0.707096
          0.707974 0.685546 0.688558 0.690659 0.693066 0.703737
          0.695751 0.696136 0.685864 0.698922 0.682565 0.707829
          0.698258 0.703377 0.701898 0.690633 0.702446 0.693982
          0.697361 0.701217 0.703591 0.699632 0.701246 0.716021
          0.70265 0.701068 0.710132 0.696202 0.697606 0.693972
          0.568531 0.681197 0.695544 0.691941 0.690688 0.702595
          0.698676 0.701957 0.688683 0.696943 0.694284 0.703006
          0.706413 0.69853 0.700222 0.693886 0.694119 0.709089
          0.700541 0.701766 0.695251 0.707167 0.700647 0.711365
          0.701501 0.681658 0.688152 0.688776 0.696618 0.688761
          0.694808 0.693997 0.692039 0.569099 0.710078 0.703069
          0.701447 0.701101 0.702255 0.703201 0.697299 0.693799
          0.690676 0.696906 0.711808 0.693903 0.703369 0.700585
          0.701594 0.701943 0.681936 0.707496 0.696447 0.689548
          0.707826 0.691033 0.690972 0.691845 0.712512 0.688205
          0.701381 0.692183 0.696617 0.692819 0.699378 0.696771
          0.546848 0.70882 0.696118 0.707914 0.707715 0.698075
          0.702048 0.704848 0.706082 0.694244 0.691568 0.708673
          0.700099 0.712541 0.682658 0.708636 0.708895 0.695934