<?xml version="1.0"?>
<VTKFile type="PolyData" version="0.1" byte_order="LittleEndian" header_type="UInt32" compressor="vtkZLibDataCompressor">
  <PolyData>
    <Piece NumberOfPoints="8160" NumberOfVerts="0" NumberOfLines="0" NumberOfStrips="0" NumberOfPolys="0">
      <PointData Scalars="Calcium Concentration">
        <DataArray type="Float32" Name="Calcium Concentration" format="ascii" RangeMin="0.22444400191307068" RangeMax="0.7367780208587646">
          0.239869 0.687089 0.697734 0.703131 0.714513 0.707442
          0.684724 0.6952 0.690635 0.703627 0.702216 0.709169
          0.694114 0.696627 0.703004 0.70967 0.693507 0.713246
          0.70045 0.690164 0.705714 0.690293 0.696351 0.676834
          0.67461 0.69219 0.690834 0.70336 0.696154 0.683157
          0.704118 0.700053 0.694424 0.692093 0.250273 0.695037
          0.706756 0.701058 0.706736 0.706062 0.688386 0.691156
          0.714376 0.703295 0.70372 0.701973 0.705502 0.699138
          0.696137 0.703577 0.691265 0.71159 0.70025 0.699582
          0.69474 0.68751 0.687834 0.676989 0.685432 0.698328
          0.692609 0.687806 0.690984 0.694393 0.708903 0.686594
          0.68928 0.692215 0.243653 0.666683 0.691064 0.683279
          0.686877 0.683389 0.689914 0.69436 0.686879 0.71232
          0.683622 0.701065 0.703855 0.694226 0.702228 0.706086
          0.709599 0.723941 0.71791 0.695424 0.709504 0.711728
          0.705286 0.723066 0.706017 0.707447 0.708875 0.717696
          0.705125 0.710214 0.706082 0.707674 0.701947 0.709388
          0.241233 0.688407 0.69409 0.69646 0.709616 0.691999
          0.705936 0.695463 0.714526 0.707274 0.694915 0.697744
          0.701611 0.705814 0.690953 0.701559 0.69464 0.70476
          0.703962 0.698835 0.706768 0.6976 0.690595 0.693162
          0.693641 0.697562 0.699091 0.697231 0.710787 0.697476
          0.692806 0.703275 0.692447 0.697822 0.234965 0.675189
          0.682919 0.682815 0.68021 0.692253 0.686764 0.680493
          0.708327 0.707089 0.705565 0.690156 0.694396 0.705584
          0.687632 0.706794 0.693609 0.705697 0.709246 0.695134
          0.70445 0.689025 0.700641 0.678657 0.68899 0.689085
          0.690873 0.688568 0.695331 0.698374 0.686384 0.69409
          0.711502 0.685024 0.249587 0.691251 0.701528 0.706294
          0.704723 0.705575 0.690491 0.704516 0.676136 0.700832
          0.699668 0.701012 0.700206 0.694037 0.697653 0.707591
          0.691842 0.692398 0.699243 0.703414 0.69261 0.711244
          0.701518 0.703642 0.708561 0.725234 0.710289 0.69248
          0.690632 0.699875 0.71529 0.703484 0.696833 0.705187
          0.238091 0.674214 0.695276 0.687179 0.682293 0.690966
          0.673628 0.691139 0.693187 0.721047 0.689277 0.701283
          0.708495 0.699322 0.698655 0.687543 0.699994 0.719425
          0.703308 0.695578 0.693867 0.707708 0.700604 0.707394
          0.707691 0.713334 0.725304 0.710545 0.721091 0.713606
          0.707487 0.716908 0.707206 0.704718 0.236702 0.683542
          0.7001 0.693695 0.690157 0.705179 0.686005 0.67876
          0.680836 0.698335 0.715083 0.703124 0.68878 0.714737
          0.691445 0.712594 0.702965 0.695911 0.698755 0.694414
          0.690083 0.697066 0.688384 0.686352 0.700044 0.689742
          0.698596 0.683934 0.688311 0.681693 0.692386 0.682255
          0.669481 0.690451 0.231861 0.669316 0.678644 0.679348
          0.678509 0.687672 0.692561 0.702899 0.689703 0.704352
          0.706802 0.693801 0.692665 0.710535 0.690699 0.714576
          0.699125 0.696315 0.70354 0.692764 0.702967 0.716134
          0.700884 0.706372 0.702788 0.718557 0.694746 0.709106
          0.703911 0.711941 0.715918 0.711634 0.713783 0.712804
          0.239899 0.682466 0.695044 0.699496 0.701085 0.717476
          0.697017 0.692022 0.712319 0.70401 0.700952 0.693108
          0.69311 0.70286 0.705442 0.700866 0.695986 0.701614
          0.718787 0.691959 0.708736 0.710271 0.696355 0.707154
          0.714941 0.706675 0.699907 0.712882 0.711392 0.703424
          0.712489 0.698161 0.709501 0.712326 0.242519 0.690096
          0.70111 0.709831 0.687947 0.7118 0.685571 0.70075
          0.70064 0.704037 0.697876 0.695549 0.703621 0.693735
          0.690069 0.704949 0.696733 0.690521 0.704597 0.706352
          0.712163 0.712972 0.708541 0.7143 0.708249 0.691345
          0.703876 0.700369 0.717402 0.710034 0.719283 0.709092
          0.706646 0.71053 0.233069 0.672579 0.686319 0.692788
          0.685484 0.689129 0.681827 0.696608 0.701318 0.708185
          0.705345 0.706433 0.696665 0.69329 0.699717 0.705115
          0.702909 0.695271 0.711747 0.693305 0.689569 0.68746
          0.708654 0.683097 0.685257 0.701041 0.692015 0.696542
          0.680586 0.688191 0.693544 0.698911 0.696936 0.696306
          0.240161 0.689167 0.706684 0.694617 0.694104 0.69744
          0.706702 0.701186 0.708221 0.700191 0.701367 0.691786
          0.705118 0.69611 0.699442 0.701302 0.700184 0.6981
          0.71531 0.692862 0.690647 0.689118 0.697764 0.688502
          0.687733 0.695443 0.693141 0.688721 0.703969 0.697211
          0.693162 0.68785 0.698569 0.693657 0.244882 0.689731
          0.685539 0.704148 0.712396 0.683012 0.696915 0.690001
          0.699931 0.713351 0.698118 0.696747 0.696832 0.709803
          0.705319 0.699235 0.700386 0.699084 0.714847 0.702922
          0.695083 0.691263 0.67508 0.682166 0.676762 0.692039
          0.686871 0.700984 0.691166 0.690186 0.700861 0.689352
          0.681685 0.697976 0.237719 0.650836 0.690529 0.69985
          0.700242 0.685523 0.691928 0.697354 0.684545 0.702422
          0.697682 0.701814 0.697246 0.700443 0.684504 0.684938
          0.702823 0.694282 0.700922 0.693082 0.707316 0.711751
          0.712638 0.708736 0.705353 0.71907 0.708946 0.700874
          0.716896 0.721562 0.708841 0.720126 0.710914 0.699505
          0.241976 0.699009 0.700099 0.692825 0.715091 0.709567
          0.685259 0.696756 0.706674 0.702383 0.689672 0.701988
          0.706116 0.701114 0.694941 0.704917 0.695065 0.699929
          0.696577 0.702001 0.690429 0.682869 0.702518 0.684021
          0.689025 0.697368 0.699529 0.689698 0.684556 0.690111
          0.688955 0.690325 0.681594 0.69473 0.227497 0.666849
          0.695922 0.684667 0.692582 0.687151 0.694607 0.689986
          0.691616 0.683947 0.706159 0.705221 0.702402 0.706118
          0.700452 0.701271 0.696585 0.713204 0.703695 0.698324
          0.695646 0.69703 0.699162 0.688669 0.690747 0.68988
          0.687571 0.70644 0.706099 0.703308 0.708681 0.707844
          0.689624 0.698653 0.23083 0.680093 0.68236 0.66768
          0.686594 0.695937 0.693283 0.709151 0.688216 0.709568
          0.699928 0.710989 0.702052 0.696287 0.703038 0.691549
          0.69555 0.703691 0.702302 0.700831 0.695225 0.70788
          0.706839 0.710257 0.709799 0.728424 0.705575 0.699878
          0.702711 0.708773 0.707134 0.696388 0.71964 0.722042
          0.232259 0.671682 0.690433 0.69083 0.694919 0.680281
          0.690611 0.691532 0.702429 0.711987 0.69436 0.692697
          0.699533 0.694327 0.698879 0.69894 0.703012 0.715832
          0.700125 0.706226 0.693114 0.694795 0.69108 0.684196
          0.695157 0.701954 0.691864 0.682452 0.687074 0.688507
          0.70223 0.683743 0.700307 0.703327 0.252588 0.679167
          0.698165 0.708642 0.692274 0.69436 0.703343 0.700444
          0.69767 0.707733 0.699813 0.704363 0.699498 0.687911
          0.696487 0.702758 0.69807 0.700608 0.712156 0.696324
          0.686865 0.703485 0.686587 0.678129 0.701107 0.690729
          0.688256 0.696693 0.69846 0.692226 0.68461 0.692504
          0.680962 0.693692 0.231695 0.691698 0.688423 0.687849
          0.692098 0.695275 0.698628 0.709168 0.690504 0.687924
          0.708913 0.688222 0.692179 0.704715 0.682499 0.691489
          0.70399 0.700978 0.709619 0.695277 0.687944 0.701656
          0.678207 0.683551 0.687823 0.693824 0.694858 0.691526
          0.706513 0.701212 0.6975 0.687925 0.701879 0.701541
          0.247515 0.67661 0.698452 0.691059 0.701101 0.707636
          0.705194 0.700303 0.687944 0.707426 0.698475 0.694218
          0.713516 0.692504 0.693031 0.687214 0.696638 0.702754
          0.695433 0.702361 0.69848 0.70716 0.709567 0.704439
          0.706657 0.71547 0.719005 0.694598 0.720929 0.707187
          0.721618 0.699792 0.701577 0.706011 0.242578 0.704872
          0.682063 0.71072 0.700515 0.697254 0.703953 0.707667
          0.687962 0.700932 0.702218 0.690839 0.707241 0.689995
          0.686881 0.696894 0.702119 0.710981 0.702475 0.701551
          0.715854 0.711521 0.699685 0.711065 0.716679 0.702102
          0.700349 0.703808 0.690404 0.69842 0.715751 0.716621
          0.72147 0.713839 0.240553 0.699425 0.704952 0.690602
          0.703726 0.701208 0.708448 0.700803 0.693708 0.698646
          0.694374 0.697992 0.699024 0.715931 0.692901 0.696202
          0.707539 0.713951 0.697559 0.688119 0.705047 0.701849
          0.710689 0.711533 0.70986 0.712232 0.714863 0.714362
          0.720867 0.702764 0.699432 0.705452 0.699392 0.715255
          0.236169 0.681392 0.696322 0.696524 0.706523 0.687236
          0.714433 0.69984 0.70759 0.7069 0.705805 0.699033
          0.691266 0.706795 0.700868 0.700152 0.708268 0.684114
          0.699089 0.700761 0.70021 0.682803 0.673286 0.697532
          0.682284 0.689457 0.699319 0.6897 0.703306 0.700067
          0.68427 0.682223 0.683275 0.689648 0.247433 0.670093
          0.702915 0.716714 0.702388 0.705956 0.701645 0.700221
          0.689067 0.702631 0.692102 0.703419 0.705486 0.706232
          0.70401 0.706926 0.699808 0.698542 0.692859 0.70209
          0.70003 0.68989 0.685281 0.683358 0.691343 0.690744
          0.700829 0.695663 0.703937 0.706774 0.69345 0.694978
          0.701229 0.691965 0.252432 0.691716 0.68261 0.703602
          0.704027 0.702201 0.705244 0.694727 0.690792 0.685234
          0.722371 0.695484 0.698524 0.702079 0.695564 0.689612
          0.70752 0.719601 0.680886 0.694217 0.708089 0.695768
          0.673251 0.700158 0.692392 0.696627 0.68151 0.695474
          0.675261 0.68247 0.688 0.677327 0.687593 0.695041
          0.245424 0.68027 0.68841 0.693594 0.681117 0.686443
          0.694441 0.691209 0.685637 0.704433 0.697686 0.680703
          0.690875 0.682486 0.682632 0.7113 0.699308 0.684132
          0.710264 0.693288 0.702104 0.694565 0.687819 0.690771
          0.685427 0.695405 0.697585 0.68405 0.68675 0.681771
          0.704923 0.695485 0.675703 0.706939 0.235698 0.683997
          0.693511 0.699614 0.700649 0.691069 0.702469 0.708869
          0.690167 0.722545 0.68778 0.683157 0.712627 0.696166
          0.708474 0.698557 0.69441 0.7004 0.688459 0.706439
          0.700145 0.693905 0.679397 0.684486 0.693592 0.689864
          0.685876 0.69329 0.715222 0.700226 0.682144 0.703728
          0.698185 0.684876 0.235727 0.678582 0.693172 0.693491
          0.699376 0.689751 0.70124 0.690835 0.69649 0.710449
          0.704072 0.691589 0.704057 0.704232 0.68992 0.723812
          0.692797 0.689984 0.718062 0.687372 0.693915 0.690647
          0.695946 0.692976 0.685015 0.693533 0.692506 0.701578
          0.69628 0.695426 0.69339 0.682978 0.679025 0.693609
          0.241667 0.665162 0.692588 0.689984 0.681471 0.689451
          0.685187 0.700336 0.68921 0.694539 0.701922 0.702808
          0.707972 0.704455 0.702961 0.694337 0.693214 0.690852
          0.687654 0.695386 0.690456 0.716589 0.708583 0.72428
          0.716259 0.714401 0.720556 0.697587 0.709187 0.709476
          0.694791 0.704458 0.700697 0.711104 0.238591 0.679705
          0.703109 0.695479 0.692756 0.692479 0.699075 0.686554
          0.682556 0.680647 0.698644 0.691933 0.68941 0.707741
          0.693202 0.713316 0.696485 0.703181 0.703144 0.695713
          0.700693 0.707079 0.722118 0.706168 0.703199 0.715419
          0.696945 0.711922 0.713546 0.711075 0.71062 0.707607
          0.708123 0.71197 0.23616 0.677347 0.683136 0.688099
          0.711196 0.703103 0.710641 0.691571 0.694483 0.717343
          0.691941 0.687789 0.71592 0.704503 0.689278 0.697028
          0.690657 0.696049 0.721639 0.690105 0.706913 0.702077
          0.705412 0.705296 0.704298 0.709779 0.712322 0.705137
          0.702293 0.713527 0.71882 0.710012 0.709576 0.710864
          0.238542 0.665472 0.69126 0.702637 0.682507 0.684627
          0.688914 0.691736 0.683339 0.689048 0.709243 0.708885
          0.691196 0.700963 0.702325 0.71208 0.709645 0.701675
          0.69864 0.689742 0.703312 0.695076 0.687461 0.711116
          0.706807 0.682563 0.693597 0.697616 0.688341 0.689864
          0.695703 0.69266 0.698921 0.697958 0.249349 0.680517
          0.69021 0.681583 0.677207 0.693181 0.6808 0.68885
          0.702383 0.703589 0.700192 0.706189 0.701374 0.701717
          0.700346 0.70643 0.705498 0.700986 0.69565 0.715338
          0.695366 0.699366 0.695112 0.683641 0.682405 0.684046
          0.700809 0.702529 0.690587 0.704808 0.691477 0.692529
          0.686388 0.69514 0.236646 0.658087 0.680808 0.700514
          0.695433 0.691401 0.683264 0.690395 0.696806 0.691452
          0.690439 0.683573 0.699355 0.699618 0.713212 0.70784
          0.704316 0.706971 0.70898 0.709864 0.69274 0.703246
          0.699677 0.698796 0.714905 0.698971 0.700639 0.704239
          0.702502 0.697693 0.694378 0.690342 0.688984 0.689186
          0.23243 0.679827 0.692359 0.701099 0.692887 0.706599
          0.705417 0.697698 0.701554 0.699721 0.692078 0.703155
          0.702349 0.691936 0.685137 0.704597 0.693041 0.702829
          0.700711 0.703758 0.693252 0.697684 0.702271 0.686788
          0.692304 0.693202 0.687311 0.691916 0.704956 0.699662
          0.68816 0.679537 0.688282 0.680142 0.236884 0.657071
          0.686491 0.688409 0.696384 0.69385 0.684846 0.689259
          0.700243 0.698476 0.697284 0.695281 0.698021 0.692882
          0.686997 0.703157 0.693327 0.698863 0.694037 0.696758
          0.694088 0.696592 0.710321 0.703402 0.710609 0.71656
          0.717624 0.715516 0.715728 0.718738 0.694594 0.721023
          0.717804 0.706413 0.242509 0.695134 0.686961 0.69263
          0.696925 0.697107 0.690886 0.692798 0.692189 0.705351
          0.685924 0.702239 0.696922 0.694553 0.698666 0.706623
          0.69777 0.704029 0.715955 0.692751 0.707291 0.696765
          0.688971 0.705061 0.707045 0.696495 0.709919 0.693016
          0.684004 0.698721 0.693262 0.681905 0.688151 0.688352
          0.236548 0.691632 0.696401 0.696779 0.689386 0.700961
          0.700549 0.693729 0.706026 0.707103 0.702373 0.690622
          0.712882 0.700271 0.696523 0.697487 0.694951 0.701439
          0.69516 0.692297 0.703858 0.703892 0.693891 0.683888
          0.697277 0.685188 0.684802 0.684852 0.695193 0.697828
          0.712419 0.698385 0.679741 0.693948 0.233412 0.680237
          0.696284 0.704551 0.704952 0.6942 0.705079 0.698229
          0.71066 0.696383 0.693558 0.71003 0.697355 0.691812
          0.697197 0.691687 0.702713 0.703501 0.684674 0.715751
          0.694821 0.701287 0.698578 0.701624 0.690714 0.697437
          0.697969 0.697349 0.698388 0.698006 0.676205 0.701446
          0.686465 0.693815 0.245302 0.691547 0.714046 0.694649
          0.680763 0.702632 0.697732 0.716957 0.686657 0.69532
          0.704172 0.692029 0.707344 0.690017 0.69359 0.711921
          0.697606 0.698511 0.707534 0.70105 0.696789 0.699947
          0.707006 0.698721 0.707719 0.718952 0.711737 0.714455
          0.708661 0.710689 0.710608 0.70624 0.708536 0.709552
          0.235303 0.68208 0.698784 0.698179 0.69809 0.697273
          0.709521 0.689688 0.698797 0.698172 0.717862 0.69818
          0.693758 0.703663 0.703173 0.688477 0.698237 0.696424
          0.711518 0.697185 0.683486 0.692692 0.699002 0.69018
          0.689935 0.690929 0.683604 0.686013 0.686736 0.694378
          0.695062 0.700456 0.682006 0.687286 0.230284 0.688198
          0.700525 0.685078 0.696422 0.704137 0.69863 0.702682
          0.69701 0.702473 0.706747 0.692388 0.71018 0.69766
          0.693391 0.70373 0.70309 0.6979 0.709494 0.69523
          0.708561 0.703889 0.700691 0.70624 0.710024 0.710782
          0.711031 0.693799 0.710073 0.717744 0.692444 0.706276
          0.714936 0.704489 0.233909 0.652169 0.689604 0.696003
          0.696951 0.689983 0.690909 0.706638 0.699988 0.698941
          0.685287 0.700899 0.683828 0.70534 0.693753 0.698754
          0.694548 0.710444 0.70149 0.703247 0.705351 0.70804
          0.714471 0.712778 0.714268 0.708801 0.711808 0.726863
          0.718908 0.71176 0.700335 0.729279 0.708414 0.70712
          0.233211 0.65903 0.68786 0.674421 0.683047 0.699296
          0.702054 0.689877 0.682918 0.703147 0.71764 0.695012
          0.695474 0.695073 0.695981 0.701266 0.696673 0.711088
          0.695715 0.696541 0.708728 0.703945 0.716408 0.705548
          0.714944 0.716455 0.706145 0.704954 0.705863 0.722789
          0.70312 0.711589 0.712024 0.711253 0.235642 0.671135
          0.679139 0.690516 0.69062 0.680177 0.695097 0.68166
          0.695072 0.712298 0.696306 0.695333 0.702306 0.705967
          0.699044 0.704331 0.707045 0.707233 0.707622 0.684932
          0.710993 0.714454 0.721365 0.706462 0.691184 0.701017
          0.695305 0.70428 0.707104 0.721152 0.69376 0.714077
          0.711399 0.709115 0.249217 0.697072 0.704538 0.691087
          0.696311 0.709143 0.692918 0.696353 0.700961 0.69546
          0.699305 0.673738 0.693969 0.718019 0.682136 0.708751
          0.7027 0.701378 0.706351 0.710107 0.705613 0.705286
          0.713156 0.707335 0.690612 0.702632 0.709733 0.713325
          0.707817 0.705258 0.720104 0.707177 0.69978 0.71763
          0.224444 0.667533 0.690982 0.697765 0.686844 0.687046
          0.698709 0.689358 0.685716 0.682116 0.704643 0.702405
          0.7063 0.698874 0.695372 0.707922 0.689113 0.693727
          0.701738 0.699551 0.68958 0.685015 0.678476 0.692722
          0.706059 0.695538 0.699105 0.691353 0.685583 0.700758
          0.687279 0.692308 0.695388 0.692288 0.251301 0.670632
          0.7003 0.697369 0.691415 0.692489 0.69862 0.701307
          0.69212 0.709558 0.6958 0.703612 0.711269 0.681758
          0.713387 0.702274 0.697446 0.708305 0.689134 0.713221
          0.694109 0.699291 0.69416 0.699387 0.693706 0.697128
          0.702223 0.709255 0.703218 0.679811 0.690561 0.700519
          0.685404 0.69178 0.243224 0.670271 0.693008 0.687624
          0.673548 0.686447 0.680576 0.706942 0.716388 0.695523
          0.686355 0.694574 0.690196 0.698735 0.716641 0.706122
          0.692083 0.697557 0.696047 0.709878 0.696408 0.690957
          0.687738 0.69323 0.6927 0.694209 0.692702 0.694071
          0.703935 0.712094 0.67712 0.695098 0.70329 0.703952
          0.236697 0.656436 0.691612 0.693165 0.695763 0.681296
          0.696245 0.70174 0.69294 0.682062 0.696921 0.698193
          0.703951 0.698922 0.701227 0.712346 0.680521 0.684268
          0.708341 0.704608 0.695552 0.724722 0.70742 0.718203
          0.71974 0.724805 0.712262 0.703796 0.712013 0.699979
          0.700006 0.707571 0.715355 0.689053 0.244383 0.654899
          0.683032 0.701141 0.689225 0.677596 0.676205 0.692592
          0.704477 0.694081 0.702633 0.707057 0.696538 0.70706
          0.701935 0.705396 0.690888 0.691538 0.694113 0.700011
          0.700121 0.708843 0.700056 0.699605 0.707932 0.682354
          0.698754 0.697014 0.69093 0.689827 0.690552 0.700781
          0.69267 0.698006 0.246726 0.682791 0.695242 0.681645
          0.683005 0.691388 0.701015 0.689464 0.679423 0.703969
          0.715147 0.684262 0.70333 0.70096 0.683569 0.703418
          0.6974 0.698985 0.70851 0.712983 0.704982 0.692775
          0.697575 0.70617 0.677058 0.695262 0.696466 0.690436
          0.683318 0.693526 0.682629 0.685865 0.694916 0.693659
          0.241332 0.703424 0.705685 0.724106 0.692306 0.690946
          0.690635 0.703319 0.699821 0.706225 0.690425 0.695967
          0.700198 0.704182 0.681207 0.693776 0.692993 0.703807
          0.719134 0.6918 0.703017 0.698467 0.70193 0.707702
          0.716362 0.71494 0.717536 0.704563 0.695688 0.707714
          0.718365 0.707602 0.712036 0.716711 0.240989 0.691479
          0.694659 0.697875 0.695647 0.695422 0.692636 0.693825
          0.698102 0.70272 0.697663 0.686224 0.701372 0.699886
          0.686249 0.696251 0.707694 0.704111 0.713906 0.70515
          0.691107 0.703629 0.703117 0.71054 0.713942 0.690296
          0.699487 0.700716 0.707838 0.70109 0.724871 0.715994
          0.709984 0.702308 0.239347 0.655101 0.690458 0.694064
          0.688028 0.684146 0.686315 0.691502 0.704781 0.70526
          0.693299 0.693708 0.711406 0.696856 0.700495 0.70244
          0.688289 0.706829 0.700768 0.699188 0.702541 0.697079
          0.691222 0.697832 0.699565 0.70409 0.697147 0.708729
          0.691612 0.711137 0.683487 0.718068 0.698773 0.697692
          0.248023 0.693614 0.707484 0.694832 0.711021 0.706846
          0.704965 0.703395 0.69647 0.674 0.695528 0.709306
          0.708776 0.706773 0.698437 0.698409 0.704456 0.700553
          0.700169 0.713666 0.705856 0.712386 0.700453 0.705379
          0.710199 0.705289 0.693934 0.698057 0.705293 0.708781
          0.706325 0.701864 0.713622 0.707174 0.241611 0.665268
          0.685459 0.685106 0.682513 0.679082 0.692061 0.706111
          0.707778 0.709775 0.705376 0.695313 0.7057 0.703977
          0.708807 0.687904 0.702177 0.703766 0.70526 0.706749
          0.700407 0.700068 0.680821 0.683831 0.697382 0.686879
          0.68807 0.686391 0.687086 0.691746 0.692171 0.68169
          0.689994 0.694474 0.236942 0.674421 0.704312 0.700097
          0.702272 0.695962 0.695835 0.684864 0.682481 0.692833
          0.722706 0.697504 0.694921 0.694693 0.704171 0.70383
          0.70864 0.695891 0.692765 0.704335 0.693835 0.693731
          0.69315 0.693338 0.696896 0.703484 0.696763 0.689994
          0.688148 0.697979 0.682566 0.690152 0.692604 0.675596
          0.247665 0.691578 0.702052 0.693405 0.704015 0.698765
          0.69544 0.701664 0.704274 0.7015 0.700417 0.707152
          0.690792 0.698724 0.705195 0.69158 0.692467 0.695903
          0.708372 0.700679 0.695068 0.692734 0.680017 0.701739
          0.691335 0.691909 0.695154 0.697431 0.678966 0.685446
          0.678692 0.687016 0.685256 0.698374 0.251079 0.700978
          0.704051 0.690816 0.703973 0.710715 0.689154 0.710474
          0.700346 0.690679 0.711209 0.695193 0.701232 0.709003
          0.69255 0.713964 0.701591 0.70193 0.700059 0.702779
          0.689657 0.687128 0.676645 0.682837 0.682871 0.701115
          0.678541 0.691078 0.692426 0.686861 0.700601 0.676115
          0.696341 0.704562 0.231467 0.666747 0.690551 0.700679
          0.679975 0.680897 0.683684 0.706449 0.694134 0.680661
          0.696312 0.712553 0.706508 0.696299 0.710792 0.70513
          0.691252 0.69362 0.696508 0.704304 0.695226 0.711593
          0.724234 0.703159 0.715521 0.707663 0.710211 0.708442
          0.706018 0.701928 0.702706 0.726256 0.710122 0.698887
          0.2451 0.66756 0.684056 0.685539 0.685217 0.682566
          0.681185 0.710423 0.698601 0.701547 0.689888 0.712964
          0.696658 0.71125 0.707708 0.70487 0.690343 0.696178
          0.698516 0.70481 0.694107 0.697928 0.689363 0.680574
          0.695066 0.686291 0.698021 0.696983 0.695807 0.692248
          0.693549 0.687231 0.690555 0.700012 0.233247 0.672336
          0.690519 0.691594 0.698295 0.684382 0.694245 0.690069
          0.683657 0.692602 0.698824 0.698827 0.698106 0.691673
          0.706858 0.696303 0.694045 0.697882 0.71839 0.686174
          0.707013 0.704812 0.713804 0.707254 0.719652 0.707047
          0.707053 0.691822 0.704552 0.7111 0.723102 0.722771
          0.700224 0.719393 0.241966 0.666023 0.695111 0.691106
          0.706581 0.703361 0.693221 0.714963 0.707714 0.696293
          0.703756 0.707478 0.698147 0.699338 0.708385 0.687243
          0.690068 0.703819 0.697491 0.69477 0.696105 0.691711
          0.699673 0.716207 0.705476 0.689132 0.689226 0.701866
          0.695219 0.697836 0.682893 0.689348 0.687647 0.683043
          0.255384 0.679298 0.700674 0.696114 0.694807 0.702798
          0.705207 0.70114 0.703221 0.695412 0.694907 0.705178
          0.710004 0.707189 0.696108 0.712273 0.69082 0.697563
          0.699639 0.693144 0.707055 0.691939 0.707043 0.696865
          0.701278 0.680779 0.699134 0.682471 0.682172 0.700179
          0.703261 0.68579 0.70478 0.688476 0.253419 0.671788
          0.695962 0.702888 0.694739 0.697023 0.689436 0.710058
          0.702421 0.711887 0.692773 0.707515 0.698709 0.697941
          0.70766 0.692485 0.705826 0.707906 0.696952 0.715536
          0.704215 0.69307 0.691499 0.698242 0.701049 0.689326
          0.711368 0.698867 0.690897 0.705392 0.675384 0.698595
          0.693475 0.688668 0.2452 0.683893 0.707687 0.706463
          0.68883 0.697787 0.698238 0.694152 0.684092 0.693408
          0.692734 0.678096 0.710693 0.707619 0.691009 0.691518
          0.705602 0.707998 0.703381 0.695436 0.704473 0.698985
          0.697423 0.710011 0.702889 0.697879 0.70213 0.706987
          0.717627 0.707957 0.705342 0.682922 0.723011 0.728331
          0.239167 0.675769 0.680776 0.677581 0.684206 0.694846
          0.686583 0.692286 0.706343 0.698554 0.71758 0.702453
          0.700167 0.710551 0.693025 0.714257 0.698051 0.699712
          0.70209 0.694786 0.697057 0.692779 0.691594 0.687854
          0.68309 0.688949 0.689498 0.681902 0.696865 0.693313
          0.677395 0.691648 0.694414 0.687639 0.254446 0.70008
          0.694498 0.700331 0.697023 0.689206 0.707221 0.699801
          0.710019 0.694108 0.708581 0.675022 0.724548 0.711535
          0.691021 0.695243 0.701565 0.718136 0.702284 0.695812
          0.689928 0.689567 0.682884 0.701936 0.696955 0.683823
          0.676642 0.689144 0.685977 0.687477 0.696346 0.68579
          0.699576 0.697272 0.245357 0.664521 0.703569 0.697258
          0.69092 0.692931 0.685611 0.706058 0.698149 0.685308
          0.700758 0.702355 0.704836 0.70861 0.694412 0.719392
          0.687342 0.682404 0.701094 0.703575 0.698211 0.698209
          0.713804 0.695466 0.715677 0.686983 0.700132 0.708477
          0.698134 0.706122 0.688079 0.703066 0.701197 0.689765
          0.240104 0.690771 0.700519 0.703818 0.690857 0.699845
          0.70383 0.708842 0.706109 0.708773 0.692315 0.708962
          0.700451 0.705046 0.71001 0.705121 0.689142 0.700672
          0.704377 0.686931 0.701149 0.714262 0.708869 0.71435
          0.708192 0.705173 0.696835 0.698728 0.712815 0.714367
          0.68964 0.716156 0.715969 0.713136 0.225911 0.653911
          0.686102 0.700637 0.694252 0.69566 0.680913 0.690456
          0.698351 0.702833 0.704397 0.7064 0.693178 0.701988
          0.702819 0.70189 0.711939 0.694036 0.698218 0.694666
          0.71272 0.707776 0.706138 0.710038 0.711991 0.704149
          0.707408 0.702295 0.696377 0.71209 0.707214 0.713178
          0.713847 0.706215 0.240729 0.662754 0.690189 0.693469
          0.689581 0.698942 0.701944 0.700042 0.690131 0.684357
          0.694982 0.69731 0.703531 0.707434 0.70212 0.698851
          0.694607 0.697421 0.698971 0.694255 0.707637 0.713105
          0.722493 0.709023 0.713276 0.711758 0.709876 0.703085
          0.702467 0.722189 0.701803 0.701284 0.706579 0.703594
          0.231207 0.687065 0.694679 0.692604 0.710887 0.700263
          0.694147 0.693679 0.6951 0.699934 0.69289 0.695099
          0.694681 0.696069 0.698906 0.695837 0.690945 0.703975
          0.691813 0.689408 0.709927 0.705767 0.696296 0.701263
          0.703198 0.710034 0.71025 0.731085 0.704098 0.709442
          0.701371 0.710456 0.712045 0.70696 0.245596 0.675371
          0.687684 0.706191 0.698292 0.695008 0.697813 0.697522
          0.70733 0.701106 0.692943 0.704997 0.697416 0.696098
          0.697833 0.692076 0.684558 0.702985 0.701695 0.702682
          0.716936 0.706401 0.692703 0.705671 0.708653 0.716188
          0.703791 0.711777 0.710564 0.71272 0.698964 0.694732
          0.702301 0.709208 0.249336 0.668929 0.688782 0.682373
          0.681803 0.691273 0.69027 0.686951 0.697016 0.70036
          0.708276 0.692029 0.704794 0.703663 0.677431 0.706747
          0.694294 0.696643 0.705449 0.703479 0.710215 0.704956
          0.709715 0.712506 0.701404 0.703155 0.695153 0.70275
          0.706261 0.687086 0.714944 0.698501 0.705861 0.709403
          0.244708 0.684723 0.703445 0.699972 0.693209 0.70726
          0.693782 0.718459 0.694511 0.686403 0.699723 0.713186
          0.694811 0.723042 0.697649 0.699293 0.694245 0.704004
          0.703441 0.68979 0.717057 0.706847 0.709542 0.695568
          0.714723 0.70069 0.721383 0.725843 0.697355 0.705832
          0.690569 0.710032 0.711327 0.700335 0.247704 0.663546
          0.677303 0.692071 0.687845 0.708812 0.689095 0.687186
          0.696083 0.690418 0.697251 0.696519 0.696011 0.7045
          0.69118 0.692122 0.705165 0.679834 0.709295 0.702822
          0.701034 0.703958 0.723095 0.696073 0.702121 0.706787
          0.718396 0.704382 0.721766 0.702684 0.700712 0.69725
          0.701186 0.702962 0.253549 0.692413 0.695567 0.70222
          0.684232 0.71459 0.703345 0.702456 0.684083 0.706582
          0.699639 0.71763 0.698873 0.693013 0.687694 0.701936
          0.695965 0.700291 0.71046 0.695334 0.694293 0.706025
          0.724037 0.697811 0.704674 0.708403 0.700099 0.701474
          0.704761 0.703862 0.716475 0.70466 0.717888 0.720831
          0.24057 0.662836 0.698118 0.692332 0.698022 0.689404
          0.687348 0.706986 0.721909 0.696088 0.700986 0.693627
          0.694822 0.690953 0.690298 0.702153 0.689103 0.688916
          0.688167 0.708838 0.687452 0.70093 0.700088 0.707305
          0.703961 0.695411 0.700299 0.700939 0.700249 0.715906
          0.67346 0.706215 0.702453 0.691097 0.249194 0.666524
          0.710035 0.69896 0.701406 0.72486 0.689914 0.702895