<?xml version="1.0"?>
<VTKFile type="PolyData" version="0.1" byte_order="LittleEndian" header_type="UInt32" compressor="vtkZLibDataCompressor">
  <PolyData>
    <Piece NumberOfPoints="8160" NumberOfVerts="0" NumberOfLines="0" NumberOfStrips="0" NumberOfPolys="0">
      <PointData Scalars="Calcium Concentration">
        <DataArray type="Float32" Name="Calcium Concentration" format="ascii" RangeMin="0.29178500175476074" RangeMax="0.7383549809455872">
          0.313931 0.692412 0.702164 0.698993 0.708646 0.708319
          0.687384 0.690475 0.686616 0.703092 0.698459 0.707362
          0.693453 0.695479 0.691561 0.69702 0.696375 0.720371
          0.712872 0.690054 0.699083 0.690518 0.696999 0.680738
          0.680315 0.690256 0.692763 0.702783 0.700503 0.681832
          0.699515 0.698647 0.691747 0.696739 0.32602 0.693608
          0.703692 0.695407 0.705588 0.70124 0.695789 0.69259
          0.724807 0.697537 0.703296 0.707355 0.701092 0.701467
          0.693097 0.707089 0.694068 0.711261 0.705194 0.697848
          0.693541 0.686007 0.688221 0.677273 0.688173 0.701948
          0.692476 0.682562 0.697998 0.695827 0.713104 0.687038
          0.690571 0.690151 0.320743 0.672012 0.694476 0.68246
          0.687293 0.686318 0.691674 0.690214 0.685272 0.713911
          0.682685 0.704581 0.710451 0.695162 0.705066 0.705321
          0.711768 0.721869 0.718153 0.698149 0.7061 0.71516
          0.707957 0.717586 0.703023 0.704218 0.707405 0.711227
          0.705988 0.7122 0.705416 0.709771 0.699788 0.709457
          0.313002 0.686733 0.698993 0.698847 0.700813 0.691452
          0.70645 0.688925 0.719431 0.708019 0.692294 0.692338
          0.699897 0.699199 0.688467 0.703032 0.699013 0.696871
          0.712015 0.695143 0.707644 0.697722 0.690103 0.694576
          0.689326 0.698123 0.700878 0.695913 0.712613 0.69584
          0.69785 0.697036 0.697771 0.694607 0.307652 0.674026
          0.687637 0.683929 0.676007 0.689778 0.690583 0.680361
          0.706561 0.696428 0.702723 0.689926 0.694901 0.706688
          0.680626 0.71472 0.701588 0.707042 0.722186 0.697955
          0.696372 0.68361 0.698731 0.680148 0.687098 0.689004
          0.686509 0.688497 0.690434 0.698587 0.689211 0.693507
          0.707615 0.689515 0.329433 0.698179 0.703154 0.703209
          0.700429 0.710155 0.699618 0.709426 0.679999 0.696717
          0.696101 0.701122 0.705802 0.693544 0.693961 0.700568
          0.698266 0.695247 0.711965 0.704488 0.699125 0.716924
          0.699751 0.702872 0.714567 0.726541 0.701701 0.699486
          0.694277 0.698146 0.708821 0.708129 0.69939 0.705738
          0.312344 0.678237 0.697966 0.690954 0.676073 0.696321
          0.677966 0.683437 0.695807 0.719284 0.682007 0.703053
          0.701518 0.699577 0.695336 0.69725 0.701685 0.715925
          0.709458 0.696246 0.69303 0.704737 0.700339 0.698603
          0.708091 0.714813 0.715606 0.712274 0.719564 0.711199
          0.712168 0.719591 0.706298 0.705792 0.309321 0.68414
          0.69883 0.703938 0.688122 0.698871 0.692189 0.675217
          0.687441 0.704087 0.719885 0.707848 0.687199 0.719728
          0.69478 0.708804 0.702613 0.69098 0.7113 0.69004
          0.687806 0.693534 0.688691 0.685018 0.694654 0.689781
          0.704596 0.684314 0.701639 0.681154 0.697245 0.683067
          0.672631 0.692456 0.305225 0.677898 0.674957 0.684999
          0.672819 0.687923 0.69555 0.696922 0.691289 0.699983
          0.707704 0.698141 0.701132 0.716389 0.6902 0.708493
          0.704793 0.700759 0.711956 0.688518 0.704191 0.720978
          0.69718 0.701985 0.706073 0.720746 0.698839 0.711586
          0.710404 0.715539 0.714945 0.707795 0.71191 0.708774
          0.318961 0.686842 0.694148 0.693786 0.702655 0.713109
          0.699835 0.698591 0.710036 0.706804 0.700685 0.694166
          0.699642 0.706016 0.702448 0.689574 0.700171 0.703245
          0.728025 0.686075 0.705735 0.700748 0.695052 0.707912
          0.716055 0.707666 0.694599 0.706914 0.713194 0.695639
          0.708688 0.704362 0.708026 0.712682 0.323597 0.693318
          0.70071 0.708078 0.691698 0.715176 0.70062 0.700797
          0.703865 0.708961 0.700196 0.699873 0.701729 0.698946
          0.693165 0.700265 0.700765 0.695896 0.708734 0.714454
          0.708099 0.71065 0.703817 0.709069 0.702921 0.696444
          0.705321 0.700402 0.721702 0.704919 0.71977 0.713132
          0.709337 0.710695 0.306082 0.671186 0.684963 0.695366
          0.684132 0.692411 0.681131 0.698744 0.699106 0.705107
          0.702552 0.701372 0.691225 0.690808 0.692519 0.705968
          0.698188 0.696212 0.712677 0.69655 0.686087 0.692682
          0.703786 0.683781 0.680712 0.702783 0.693516 0.697526
          0.678313 0.688306 0.690909 0.697118 0.695069 0.702617
          0.317639 0.698137 0.709415 0.699265 0.691668 0.696098
          0.707482 0.699516 0.703278 0.707471 0.701318 0.691553
          0.705971 0.696772 0.703249 0.703078 0.699841 0.705795
          0.710643 0.702891 0.697641 0.686815 0.694348 0.686715
          0.687733 0.705397 0.684944 0.684812 0.70317 0.692174
          0.687103 0.682593 0.700215 0.696424 0.325298 0.682098
          0.686144 0.70688 0.711999 0.684008 0.704663 0.693313
          0.696033 0.709352 0.696656 0.702472 0.694297 0.706183
          0.702667 0.695469 0.698323 0.712086 0.723157 0.70263
          0.696126 0.691145 0.673694 0.689005 0.675284 0.689269
          0.690874 0.695413 0.700036 0.684434 0.694938 0.681959
          0.683266 0.695102 0.302933 0.665913 0.69186 0.699557
          0.69656 0.689657 0.684314 0.696011 0.68146 0.702145
          0.700044 0.707234 0.690628 0.706035 0.692626 0.685907
          0.700474 0.690115 0.700431 0.694282 0.707905 0.716846
          0.710249 0.709214 0.70825 0.716279 0.711217 0.704347
          0.716471 0.721413 0.700147 0.718828 0.708836 0.707158
          0.31209 0.700883 0.693029 0.690208 0.709267 0.70437
          0.689608 0.69001 0.703667 0.705558 0.698635 0.703665
          0.696007 0.704508 0.697823 0.704393 0.695605 0.70571
          0.706148 0.70538 0.686532 0.680433 0.698273 0.686496
          0.696485 0.696026 0.692513 0.68778 0.690766 0.69178
          0.690818 0.695742 0.687995 0.689812 0.313038 0.670172
          0.693123 0.688967 0.688594 0.696768 0.689931 0.69756
          0.692893 0.688238 0.703369 0.706202 0.703786 0.699533
          0.715316 0.699627 0.699248 0.705621 0.708509 0.694809
          0.697868 0.697626 0.699537 0.699921 0.686591 0.684097
          0.687837 0.701532 0.699552 0.702914 0.706938 0.702972
          0.689501 0.697388 0.304636 0.681857 0.683457 0.676728
          0.686695 0.696316 0.694782 0.70754 0.689981 0.710335
          0.700226 0.714857 0.698269 0.69694 0.702375 0.694392
          0.69637 0.708742 0.714566 0.69696 0.690551 0.703191
          0.70346 0.712287 0.706699 0.725368 0.699188 0.69619
          0.696779 0.705277 0.700542 0.702424 0.719821 0.725432
          0.305779 0.679906 0.691992 0.688694 0.690115 0.678122
          0.686736 0.694956 0.698172 0.708033 0.689987 0.692711
          0.701545 0.689977 0.69722 0.700906 0.697348 0.713483
          0.697876 0.709027 0.70369 0.688089 0.68338 0.688617
          0.685141 0.697918 0.689523 0.687484 0.687392 0.692357
          0.701815 0.681134 0.696469 0.702839 0.326415 0.684185
          0.69311 0.712456 0.697189 0.689981 0.704241 0.702137
          0.695972 0.710039 0.703368 0.700286 0.688852 0.690047
          0.698851 0.702265 0.700156 0.699129 0.711283 0.69715
          0.685393 0.695797 0.677981 0.676381 0.693404 0.695948
          0.686761 0.693362 0.698617 0.688382 0.685507 0.69156
          0.680283 0.698471 0.305 0.694342 0.688582 0.688002
          0.69879 0.697695 0.700553 0.715116 0.693878 0.69854
          0.711092 0.692074 0.692882 0.707579 0.677787 0.70033
          0.704673 0.698641 0.722296 0.692633 0.691748 0.705275
          0.681843 0.684603 0.693225 0.694545 0.692243 0.694588
          0.701813 0.701219 0.695944 0.689512 0.703869 0.702957
          0.324162 0.680352 0.707757 0.685207 0.699288 0.70635
          0.708262 0.69843 0.693579 0.713674 0.695327 0.691622
          0.705506 0.684726 0.701013 0.693522 0.70087 0.703999
          0.693964 0.701412 0.708179 0.701785 0.706052 0.712974
          0.701951 0.711414 0.71186 0.699278 0.711979 0.713288
          0.72185 0.701733 0.70307 0.697679 0.317887 0.709606
          0.678064 0.710808 0.69998 0.697367 0.706725 0.709752
          0.688103 0.697184 0.712572 0.694101 0.698922 0.686275
          0.692748 0.70472 0.696176 0.711254 0.712507 0.703063
          0.715256 0.705687 0.697636 0.711425 0.706598 0.70116
          0.706125 0.701147 0.690293 0.702127 0.718764 0.714077
          0.719832 0.722724 0.315732 0.703179 0.698457 0.695492
          0.701018 0.695502 0.710776 0.696842 0.696784 0.698954
          0.701078 0.692979 0.69558 0.706112 0.688445 0.698907
          0.706328 0.709611 0.708147 0.684266 0.702079 0.698114
          0.707135 0.709872 0.710247 0.703009 0.714287 0.71934
          0.719336 0.70063 0.707029 0.704437 0.699519 0.727272
          0.312652 0.691406 0.693201 0.696848 0.709114 0.685778
          0.711918 0.69439 0.711805 0.704245 0.706926 0.693509
          0.689038 0.704049 0.696862 0.69886 0.702973 0.686718
          0.709513 0.697283 0.698197 0.69301 0.66499 0.694015
          0.68484 0.690931 0.69218 0.689296 0.706434 0.698562
          0.686975 0.68321 0.684245 0.694932 0.316429 0.676745
          0.704399 0.706654 0.700131 0.707017 0.703121 0.70369
          0.692618 0.701813 0.688056 0.702838 0.702376 0.697909
          0.69594 0.70439 0.700156 0.697211 0.693581 0.694413
          0.701481 0.691232 0.687599 0.683987 0.685275 0.694275
          0.702383 0.694255 0.702969 0.70365 0.685762 0.695653
          0.697266 0.689729 0.322586 0.696897 0.685908 0.705086
          0.703123 0.699949 0.702242 0.699436 0.69424 0.689325
          0.713352 0.692274 0.704541 0.705311 0.688653 0.691046
          0.710078 0.715041 0.688943 0.706418 0.699775 0.691255
          0.673839 0.700241 0.697367 0.697443 0.682542 0.690579
          0.675479 0.679752 0.693695 0.680909 0.691398 0.695984
          0.320394 0.688778 0.686988 0.692905 0.687562 0.69755
          0.69011 0.700282 0.687615 0.70347 0.703984 0.673057
          0.694245 0.679874 0.68338 0.711444 0.707108 0.68877
          0.715381 0.698201 0.696772 0.697069 0.691826 0.686723
          0.690106 0.686722 0.692586 0.684649 0.681863 0.682783
          0.700445 0.697957 0.679702 0.709451 0.310599 0.692286
          0.690815 0.701451 0.70608 0.693043 0.703809 0.70002
          0.680655 0.728376 0.684333 0.685931 0.705007 0.689776
          0.705319 0.70245 0.695038 0.698492 0.702677 0.708577
          0.698647 0.685674 0.675511 0.687261 0.687503 0.693043
          0.686509 0.68889 0.716736 0.696495 0.680942 0.704499
          0.705802 0.683731 0.31398 0.680524 0.69622 0.698509
          0.69914 0.6879 0.710187 0.690555 0.70426 0.710542
          0.707355 0.696526 0.694236 0.705185 0.695546 0.716276
          0.693919 0.682404 0.719908 0.697167 0.69184 0.692219
          0.689337 0.689148 0.691004 0.696189 0.689902 0.708784
          0.702358 0.694431 0.687014 0.675046 0.686406 0.696814
          0.318748 0.671098 0.691739 0.689613 0.673815 0.689267
          0.697018 0.700168 0.687333 0.695796 0.69803 0.702581
          0.703264 0.703357 0.696849 0.693883 0.694233 0.699733
          0.689311 0.701624 0.696064 0.713953 0.708839 0.72057
          0.711726 0.719572 0.713443 0.695857 0.705597 0.709616
          0.703297 0.703731 0.704184 0.716688 0.310695 0.683135
          0.695161 0.694401 0.695894 0.695505 0.695732 0.691942
          0.681821 0.683986 0.691553 0.694966 0.691478 0.704554
          0.705352 0.705666 0.704402 0.704136 0.706095 0.700167
          0.70269 0.709384 0.71858 0.713046 0.701198 0.716321
          0.700833 0.715746 0.713173 0.711444 0.705412 0.708086
          0.716059 0.708196 0.315927 0.686816 0.685904 0.69389
          0.709251 0.700577 0.710768 0.689714 0.698784 0.705531
          0.700574 0.686528 0.711242 0.707934 0.689313 0.68449
          0.692432 0.700197 0.723347 0.692087 0.704029 0.705641
          0.706439 0.711792 0.701752 0.712224 0.70809 0.708157
          0.703709 0.714769 0.717385 0.715776 0.705889 0.712839
          0.308735 0.669495 0.686943 0.698566 0.67978 0.685346
          0.692633 0.684566 0.682181 0.690544 0.709552 0.703643
          0.690516 0.706323 0.698515 0.709741 0.711706 0.699422
          0.720516 0.696956 0.699127 0.6947 0.687784 0.707078
          0.707647 0.681635 0.702089 0.699845 0.690183 0.691688
          0.694575 0.688458 0.697335 0.694384 0.326786 0.685447
          0.690097 0.684485 0.683089 0.696032 0.68025 0.685354
          0.707971 0.695943 0.707722 0.697683 0.697442 0.705171
          0.702092 0.705522 0.711773 0.69923 0.700326 0.714701
          0.699948 0.704669 0.696287 0.693633 0.681646 0.690283
          0.707869 0.698913 0.695935 0.706171 0.690958 0.693776
          0.684527 0.698115 0.312852 0.664877 0.687451 0.702108
          0.687394 0.692396 0.687777 0.695789 0.697395 0.694823
          0.690448 0.689965 0.70296 0.696247 0.699938 0.697196
          0.696262 0.706249 0.709404 0.711973 0.694026 0.699088
          0.688791 0.698907 0.708491 0.704799 0.694789 0.701749
          0.70586 0.70007 0.695181 0.687748 0.689323 0.689288
          0.305497 0.682903 0.691797 0.708339 0.685046 0.709031
          0.702732 0.696002 0.701639 0.701527 0.689733 0.704188
          0.696619 0.689529 0.685899 0.709341 0.703452 0.70553
          0.700484 0.707116 0.690258 0.694498 0.703832 0.685447
          0.695691 0.694788 0.684158 0.691631 0.709094 0.696275
          0.688204 0.683159 0.688106 0.679536 0.312965 0.660294
          0.685258 0.690262 0.690183 0.691353 0.691189 0.690767
          0.698135 0.704619 0.687008 0.696221 0.700448 0.692533
          0.687499 0.704749 0.689166 0.70461 0.705541 0.700952
          0.692931 0.687756 0.715886 0.708419 0.703325 0.710311
          0.717108 0.711107 0.720533 0.713853 0.69939 0.711872
          0.714954 0.705423 0.323849 0.692308 0.691125 0.694047
          0.69904 0.695935 0.694419 0.688718 0.696784 0.708013
          0.688358 0.702114 0.708404 0.695486 0.700734 0.701692
          0.692305 0.705024 0.711131 0.701049 0.706033 0.691824
          0.689248 0.705947 0.709772 0.695203 0.71176 0.691617
          0.689017 0.696958 0.694824 0.684544 0.69012 0.686389
          0.30743 0.694439 0.693345 0.699454 0.696044 0.698941
          0.70018 0.698278 0.709184 0.715047 0.705996 0.69021
          0.707223 0.69659 0.702191 0.696424 0.691905 0.699523
          0.704358 0.699307 0.699268 0.701448 0.696371 0.686387
          0.706577 0.685516 0.68915 0.680061 0.695921 0.69835
          0.71051 0.70431 0.675418 0.694821 0.3138 0.683607
          0.695105 0.703855 0.709853 0.696882 0.704369 0.696771
          0.716038 0.699051 0.685488 0.713657 0.69598 0.689723
          0.693891 0.694824 0.698539 0.69747 0.683303 0.713296
          0.695656 0.698841 0.696986 0.706708 0.692291 0.692485
          0.702143 0.702959 0.698566 0.694775 0.681701 0.695914
          0.68867 0.696649 0.324095 0.700334 0.707817 0.695827
          0.681777 0.707525 0.703867 0.710421 0.688623 0.69785
          0.707268 0.693295 0.708111 0.69192 0.687424 0.709897
          0.697736 0.693176 0.712754 0.7022 0.700796 0.707138
          0.698463 0.704639 0.703063 0.721656 0.707746 0.714093
          0.712518 0.707036 0.706778 0.703433 0.709102 0.710123
          0.304857 0.690604 0.702665 0.696895 0.694843 0.692046
          0.715352 0.685982 0.70262 0.692809 0.713516 0.698473
          0.69285 0.706951 0.702611 0.68492 0.696424 0.694938
          0.73128 0.697751 0.686296 0.696351 0.697478 0.695433
          0.688003 0.69419 0.68846 0.684291 0.688788 0.695372
          0.697931 0.700414 0.682906 0.687373 0.311303 0.689974
          0.713469 0.692907 0.69487 0.699849 0.698794 0.704541
          0.691851 0.69817 0.70027 0.693913 0.710552 0.694771
          0.689165 0.708848 0.70261 0.702045 0.716594 0.697847
          0.701791 0.708528 0.700992 0.69985 0.704695 0.721943
          0.715269 0.704072 0.714185 0.714779 0.695315 0.705039
          0.716321 0.705447 0.310601 0.658079 0.689452 0.702376
          0.701365 0.691882 0.686999 0.696572 0.70348 0.697309
          0.682016 0.695325 0.68321 0.700925 0.694663 0.697292
          0.695088 0.714126 0.704806 0.702737 0.717287 0.703278
          0.714138 0.714737 0.7097 0.716539 0.716947 0.718731
          0.721309 0.709839 0.705687 0.724825 0.706839 0.70027
          0.304635 0.66578 0.682883 0.678671 0.689234 0.692213
          0.705208 0.681976 0.682091 0.699014 0.714701 0.697579
          0.701181 0.692572 0.695064 0.704696 0.70624 0.715004
          0.700096 0.691488 0.699814 0.694213 0.711888 0.703108
          0.708369 0.712157 0.703588 0.706091 0.706871 0.718962
          0.700721 0.711693 0.715585 0.711231 0.305149 0.679684
          0.689567 0.688517 0.689948 0.677992 0.696189 0.677663
          0.693949 0.713858 0.700554 0.698088 0.696516 0.709039
          0.693761 0.707478 0.700041 0.711344 0.711387 0.696494
          0.714637 0.708477 0.717809 0.709303 0.690663 0.706046
          0.698232 0.705399 0.709676 0.717833 0.693085 0.707943
          0.706052 0.711229 0.329128 0.698944 0.709501 0.701429
          0.696894 0.711508 0.699865 0.695064 0.706496 0.690618
          0.704742 0.685624 0.693327 0.718625 0.690743 0.701752
          0.696649 0.702824 0.708529 0.703086 0.706784 0.702663
          0.70409 0.712049 0.695625 0.702056 0.710357 0.710925
          0.713714 0.706284 0.713391 0.708159 0.705383 0.718102
          0.291785 0.672568 0.692457 0.699746 0.683466 0.683686
          0.69702 0.693191 0.689912 0.679254 0.700117 0.698259
          0.708796 0.6952 0.701355 0.70327 0.685624 0.691235
          0.706629 0.702987 0.685745 0.692955 0.682045 0.692285
          0.703053 0.687217 0.695798 0.691108 0.690228 0.702361
          0.68958 0.698936 0.696343 0.690111 0.328903 0.677596
          0.703882 0.69602 0.691295 0.697562 0.693182 0.693969
          0.68613 0.711127 0.694651 0.703154 0.714632 0.675902
          0.711002 0.702039 0.699916 0.710975 0.696496 0.718139
          0.696977 0.701496 0.694605 0.695787 0.689006 0.702993
          0.703635 0.707668 0.704831 0.683124 0.701306 0.704249
          0.687997 0.689394 0.325829 0.673469 0.694001 0.687754
          0.673059 0.694223 0.691128 0.703989 0.706351 0.689064
          0.681202 0.693782 0.693879 0.702417 0.710256 0.712318
          0.686281 0.710787 0.698537 0.713899 0.698723 0.690785
          0.694691 0.691029 0.695787 0.69178 0.696108 0.68793
          0.695935 0.708123 0.680787 0.694234 0.695522 0.699422
          0.317047 0.661992 0.687862 0.694238 0.696492 0.688143
          0.695099 0.698 0.688427 0.694346 0.692011 0.700334
          0.705141 0.695784 0.699445 0.701035 0.691452 0.69076
          0.701546 0.704119 0.705519 0.722649 0.713134 0.720413
          0.722006 0.726374 0.717901 0.69938 0.720748 0.69824
          0.700051 0.706112 0.721641 0.689318 0.315674 0.667493
          0.689456 0.701086 0.696464 0.686969 0.67642 0.686393
          0.705407 0.695192 0.700363 0.705551 0.698966 0.704161
          0.701396 0.704795 0.694135 0.6856 0.696614 0.701649
          0.698292 0.707799 0.698329 0.700009 0.694114 0.68689
          0.691772 0.691759 0.701743 0.682141 0.690607 0.699183
          0.693507 0.687597 0.323523 0.689206 0.696073 0.681249
          0.68538 0.689223 0.697141 0.685666 0.677469 0.701337
          0.712506 0.687252 0.697055 0.69719 0.693681 0.70112
          0.692181 0.704386 0.706311 0.710458 0.707767 0.680909
          0.692724 0.703204 0.680703 0.694229 0.704216 0.687906
          0.686571 0.692847 0.681575 0.684787 0.693798 0.692456
          0.316935 0.709429 0.701014 0.723802 0.693618 0.692671
          0.692193 0.698998 0.6925 0.716052 0.693813 0.704049
          0.698312 0.703753 0.688362 0.689524 0.692455 0.706547
          0.726668 0.698989 0.704404 0.707625 0.699625 0.712024
          0.715533 0.725185 0.712534 0.709372 0.701471 0.70819
          0.718869 0.708001 0.71025 0.719519 0.31299 0.690496
          0.693899 0.707464 0.701961 0.701871 0.695603 0.69306
          0.703987 0.695127 0.697952 0.690398 0.702531 0.703412
          0.686556 0.697215 0.702604 0.699809 0.714732 0.702373
          0.694276 0.703048 0.698712 0.703454 0.713022 0.688393
          0.695544 0.704806 0.708386 0.693982 0.722358 0.7115
          0.715546 0.707386 0.310025 0.660658 0.697174 0.693497
          0.68465 0.68502 0.688369 0.69451 0.705841 0.702487
          0.691018 0.695008 0.717273 0.695741 0.700664 0.69664
          0.690222 0.702152 0.700559 0.699436 0.702316 0.701141
          0.690974 0.70531 0.699841 0.697865 0.697799 0.707205
          0.694799 0.713084 0.686352 0.707709 0.702645 0.694808
          0.329825 0.694608 0.708187 0.690127 0.702096 0.701833
          0.695135 0.699234 0.698588 0.674724 0.694748 0.711641
          0.705096 0.702106 0.700133 0.698773 0.700315 0.703883
          0.701501 0.717058 0.69939 0.718082 0.698201 0.704579
          0.714252 0.71198 0.697039 0.699945 0.704775 0.706726
          0.697684 0.693942 0.705635 0.707684 0.315336 0.669169
          0.69218 0.693424 0.676181 0.675104 0.691838 0.705234
          0.697302 0.70615 0.704466 0.691016 0.711956 0.704851
          0.706769 0.690225 0.699624 0.708542 0.714923 0.707187
          0.700445 0.696371 0.684349 0.688591 0.69416 0.679923
          0.686365 0.690213 0.689431 0.689745 0.688089 0.684731
          0.691969 0.698676 0.304026 0.68213 0.70163 0.701913
          0.703918 0.694707 0.698008 0.685341 0.694685 0.701414
          0.717683 0.688809 0.694058 0.693409 0.705166 0.703064
          0.714174 0.702217 0.706814 0.71072 0.692962 0.696635
          0.692436 0.698348 0.697477 0.704918 0.69741 0.684058
          0.689969 0.696308 0.683728 0.688078 0.703044 0.676216
          0.320362 0.696332 0.694231 0.692329 0.708991 0.69351
          0.701604 0.701282 0.710848 0.708463 0.692936 0.709607
          0.688507 0.701038 0.702727 0.692943 0.691894 0.694695
          0.704751 0.700341 0.691988 0.69035 0.679614 0.690122
          0.689316 0.691304 0.692314 0.697464 0.684414 0.687516
          0.676664 0.694683 0.685734 0.700279 0.328602 0.700508
          0.6923 0.686931 0.705289 0.710729 0.694331 0.708967
          0.696247 0.696295 0.721911 0.69059 0.699277 0.704023
          0.692103 0.713848 0.712427 0.70303 0.703599 0.702356
          0.695313 0.680345 0.680534 0.691441 0.68019 0.702633
          0.678514 0.699816 0.699369 0.689025 0.702532 0.672601
          0.693323 0.705238 0.312616 0.666658 0.697409 0.708135
          0.688752 0.67845 0.682737 0.707196 0.698614 0.687355
          0.695164 0.714275 0.710714 0.691663 0.710761 0.705775
          0.696581 0.689208 0.700744 0.701757 0.694112 0.709923
          0.725864 0.713767 0.718839 0.715272 0.713941 0.712903
          0.705056 0.697588 0.702116 0.732696 0.70619 0.701098
          0.31852 0.672836 0.68832 0.691558 0.684282 0.681657
          0.678758 0.708687 0.700739 0.703055 0.690041 0.718243
          0.69545 0.709563 0.706518 0.704459 0.695677 0.702516
          0.704292 0.700018 0.694985 0.696557 0.68877 0.685451
          0.696231 0.694047 0.700222 0.695682 0.692977 0.682295
          0.694572 0.683575 0.688102 0.694476 0.302855 0.674987
          0.683093 0.687183 0.696747 0.686726 0.689686 0.694866
          0.678934 0.692294 0.698916 0.695119 0.692662 0.691254
          0.700446 0.708151 0.702229 0.708983 0.725842 0.690101
          0.715106 0.713482 0.711827 0.715385 0.725415 0.707775
          0.709642 0.687668 0.708772 0.70745 0.722749 0.718953
          0.698087 0.721344 0.319077 0.672102 0.69611 0.69424
          0.70581 0.70636 0.683051 0.708702 0.7044 0.700576
          0.69773 0.711391 0.68931 0.702619 0.705166 0.680442
          0.69182 0.699372 0.700078 0.693747 0.698762 0.695069
          0.697657 0.715544 0.698797 0.690986 0.698491 0.703405
          0.688908 0.698128 0.678265 0.68918 0.687782 0.685727
          0.330408 0.676995 0.69661 0.693183 0.688355 0.700719
          0.704573 0.699093 0.706556 0.705117 0.688737 0.697176
          0.719835 0.697006 0.698483 0.710122 0.694012 0.708605
          0.703602 0.694045 0.700449 0.696905 0.698152 0.700751
          0.710289 0.679934 0.699129 0.688812 0.681323 0.704007
          0.706186 0.689947 0.694536 0.683093 0.33072 0.680281
          0.692839 0.705487 0.693612 0.697655 0.68705 0.700624
          0.700544 0.717298 0.685063 0.713246 0.700897 0.69279
          0.710492 0.689964 0.715869 0.702777 0.6935 0.709555
          0.7054 0.692961 0.689292 0.696952 0.687971 0.696619
          0.705957 0.701313 0.693875 0.70438 0.681468 0.691569
          0.694388 0.683447 0.32518 0.688519 0.704971 0.707045
          0.690734 0.690857 0.687912 0.691863 0.681139 0.690996
          0.692226 0.678126 0.703474 0.701206 0.690565 0.692902
          0.700926 0.71394 0.708106 0.68906 0.696236 0.700766
          0.703541 0.712169 0.698559 0.698109 0.705392 0.698615
          0.71677 0.710322 0.704472 0.681967 0.724604 0.720285
          0.318638 0.675763 0.678327 0.675782 0.690578 0.692277
          0.687045 0.693722 0.703287 0.7009 0.70581 0.696362
          0.702106 0.721589 0.688418 0.713674 0.698575 0.701315
          0.697581 0.691624 0.693871 0.696422 0.687758 0.690139
          0.684193 0.689232 0.682181 0.679159 0.688268 0.688615
          0.679352 0.693183 0.697283 0.687958 0.326002 0.70884
          0.69002 0.702199 0.693633 0.691062 0.711555 0.699781
          0.712141 0.693504 0.709404 0.675037 0.715037 0.707996
          0.700186 0.688779 0.697663 0.722589 0.701653 0.698345
          0.686068 0.682267 0.678293 0.69991 0.695799 0.684461
          0.678481 0.689221 0.686761 0.68007 0.698862 0.691902
          0.69549 0.695943 0.325379 0.668663 0.695617 0.701634
          0.686739 0.688628 0.688022 0.71276 0.70022 0.695236
          0.702383 0.702074 0.70949 0.711018 0.697024 0.721733
          0.687466 0.690506 0.695354 0.703049 0.695073 0.705971
          0.711377 0.694501 0.706221 0.692876 0.700382 0.699824
          0.698608 0.704963 0.684128 0.702663 0.699166 0.685934
          0.315424 0.699772 0.702517 0.705167 0.692334 0.70164
          0.705338 0.705461 0.70485 0.696497 0.695546 0.716961
          0.691394 0.69869 0.712023 0.697259 0.705245 0.706258
          0.70701 0.692526 0.70619 0.723053 0.697998 0.711568
          0.706747 0.702512 0.706726 0.697516 0.710656 0.708565
          0.698855 0.718655 0.71841 0.712671 0.300372 0.655926
          0.68289 0.69487 0.691819 0.685409 0.686045 0.684889
          0.696747 0.70047 0.711313 0.705569 0.703272 0.701769
          0.709944 0.703724 0.717544 0.691096 0.700451 0.699314
          0.703091 0.708711 0.705339 0.712197 0.713657 0.707138
          0.702682 0.705519 0.699326 0.70461 0.707758 0.705501
          0.713593 0.699599 0.312466 0.667238 0.70057 0.694463
          0.695127 0.704559 0.707264 0.692667 0.688389 0.692119
          0.693606 0.690224 0.705173 0.707762 0.698292 0.702732
          0.700999 0.705046 0.711887 0.693432 0.71016 0.710845
          0.717481 0.708861 0.713043 0.711367 0.711779 0.70428
          0.703939 0.715088 0.706862 0.697201 0.710884 0.700909
          0.316068 0.694327 0.69213 0.699103 0.714513 0.702353
          0.704112 0.692615 0.690466 0.707408 0.693965 0.705157
          0.69737 0.697018 0.695587 0.691079 0.701513 0.709163
          0.694623 0.697095 0.713926 0.715621 0.693464 0.699587
          0.708123 0.713641 0.708538 0.729065 0.707476 0.708201
          0.704903 0.718131 0.709902 0.711363 0.323994 0.677216
          0.693363 0.703111 0.703556 0.686803 0.701619 0.697705
          0.696913 0.698701 0.693776 0.702346 0.703042 0.69832
          0.69962 0.693817 0.685011 0.702647 0.70282 0.696666
          0.710635 0.713321 0.697535 0.704963 0.70371 0.711526
          0.704553 0.713669 0.70899 0.705118 0.695497 0.701396
          0.705645 0.713319 0.325004 0.671874 0.686966 0.683473
          0.686386 0.689085 0.693693 0.69459 0.688322 0.706007
          0.707229 0.691519 0.706118 0.708579 0.684622 0.703853
          0.6863 0.699287 0.710061 0.704643 0.708484 0.707984
          0.709523 0.712523 0.703226 0.704752 0.691765 0.709643
          0.706955 0.693115 0.714023 0.698092 0.701241 0.713413
          0.323416 0.685083 0.701183 0.702007 0.698016 0.70614
          0.6932 0.717233 0.698711 0.692588 0.695985 0.720209
          0.688611 0.720582 0.699841 0.69221 0.691917 0.708521
          0.702717 0.695052 0.716118 0.70958 0.709963 0.696181
          0.71409 0.706288 0.725277 0.722025 0.705323 0.703116
          0.688159 0.709688 0.70977 0.696716 0.320571 0.665648
          0.673953 0.685937 0.682409 0.711369 0.690678 0.685755
          0.695058 0.694086 0.699368 0.706587 0.689184 0.705235
          0.698325 0.69353 0.709824 0.682785 0.702089 0.702278
          0.702293 0.71048 0.724544 0.698382 0.702167 0.711373
          0.720791 0.701642 0.716049 0.703936 0.698426 0.708578
          0.695393 0.702458 0.321625 0.708697 0.696282 0.707232
          0.686613 0.708379 0.702803 0.702028 0.683053 0.703563
          0.697862 0.713012 0.697427 0.699866 0.6935 0.705301
          0.696708 0.70036 0.708272 0.696522 0.689888 0.699455
          0.714256 0.696621 0.709625 0.718049 0.693129 0.706633
          0.705759 0.699521 0.719264 0.7128 0.720974 0.715341
          0.32026 0.668675 0.699849 0.699355 0.692959 0.683583
          0.691048 0.703876 0.71669 0.702555 0.693728 0.692815
          0.697692 0.692382 0.693681 0.703664 0.694463 0.690673
          0.690122 0.714675 0.691538 0.702858 0.700011 0.707933
          0.701613 0.696099 0.703947 0.69912 0.694733 0.705635
          0.676156 0.703115 0.703913 0.688914 0.323437 0.671886
          0.702498 0.706448 0.697617 0.717324 0.686149 0.704403