<?xml version="1.0"?>
<VTKFile type="PolyData" version="0.1" byte_order="LittleEndian" header_type="UInt32" compressor="vtkZLibDataCompressor">
  <PolyData>
    <Piece NumberOfPoints="7920" NumberOfVerts="0" NumberOfLines="0" NumberOfStrips="0" NumberOfPolys="0">
      <PointData Scalars="Calcium Concentration">
        <DataArray type="Float32" Name="Calcium Concentration" format="ascii" RangeMin="0.4542750120162964" RangeMax="0.7389150261878967">
          0.469349 0.70371 0.700376 0.684814 0.70012 0.690734
          0.689623 0.703556 0.692252 0.695874 0.689284 0.714574
          0.707633 0.71236 0.695279 0.695237 0.69519 0.703881
          0.718767 0.696499 0.696364 0.672141 0.693746 0.69396
          0.680523 0.696365 0.69288 0.694928 0.694335 0.686597
          0.703206 0.693216 0.687903 0.483191 0.695774 0.700568
          0.694597 0.700558 0.700753 0.698275 0.695368 0.721235
          0.700092 0.699193 0.711369 0.691791 0.705939 0.69618
          0.694739 0.696139 0.699461 0.703138 0.701427 0.689837
          0.694088 0.689555 0.678833 0.673805 0.706437 0.70326
          0.686852 0.682565 0.699981 0.699134 0.679494 0.691852
          0.477641 0.681911 0.684834 0.677666 0.688775 0.678079
          0.690654 0.696234 0.695589 0.703259 0.684453 0.703017
          0.718619 0.709607 0.711185 0.704407 0.71417 0.719125
          0.723615 0.7037 0.716308 0.717523 0.711653 0.711828
          0.707465 0.713517 0.704129 0.707614 0.713745 0.704053
          0.707778 0.707368 0.711348 0.47315 0.690999 0.712261
          0.688692 0.697589 0.69092 0.710996 0.689569 0.711093
          0.702945 0.69457 0.697358 0.689006 0.703289 0.698861
          0.697427 0.697786 0.694811 0.707294 0.702676 0.70807
          0.694892 0.693477 0.698601 0.688363 0.710616 0.701748
          0.698327 0.709243 0.702883 0.697057 0.698158 0.700707
          0.475732 0.682813 0.689951 0.699473 0.681471 0.688959
          0.692199 0.685389 0.703043 0.695516 0.702894 0.690423
          0.703171 0.707066 0.688843 0.704562 0.707163 0.70498
          0.712082 0.69314 0.691784 0.687512 0.694321 0.679849
          0.68703 0.691708 0.689283 0.691356 0.687211 0.695245
          0.685868 0.697578 0.701581 0.498724 0.701313 0.690046
          0.691568 0.687625 0.708205 0.702008 0.69753 0.700345
          0.695274 0.685212 0.700231 0.705368 0.708462 0.699762
          0.700269 0.699142 0.68819 0.714474 0.699412 0.695972
          0.705452 0.703115 0.68981 0.706103 0.720922 0.710619
          0.701411 0.699856 0.707955 0.711556 0.709062 0.704832
          0.479398 0.684791 0.690176 0.689227 0.67615 0.689044
          0.681282 0.687406 0.711982 0.709591 0.681682 0.703807
          0.69514 0.713383 0.696377 0.702066 0.713062 0.702244
          0.712464 0.69877 0.709689 0.703322 0.695614 0.693123
          0.695399 0.724579 0.715449 0.714634 0.713173 0.702008
          0.720489 0.715581 0.716241 0.465199 0.684649 0.680579
          0.691625 0.687009 0.698709 0.679152 0.665293 0.701022
          0.696496 0.716899 0.711465 0.701139 0.713878 0.693956
          0.700157 0.698961 0.70823 0.708611 0.688525 0.684818
          0.687158 0.691003 0.680299 0.694893 0.699038 0.699674
          0.687573 0.691286 0.680343 0.703943 0.680965 0.679236
          0.460592 0.684746 0.687517 0.689885 0.67282 0.689853
          0.685147 0.702564 0.709248 0.700258 0.704586 0.705457
          0.705668 0.719232 0.699616 0.706111 0.711411 0.692198
          0.715173 0.68169 0.704563 0.695026 0.70698 0.705981
          0.70599 0.716575 0.708618 0.70571 0.701812 0.701157
          0.711957 0.710809 0.711691 0.483327 0.69967 0.699535
          0.695951 0.689823 0.694456 0.704921 0.696042 0.71178
          0.694475 0.716658 0.69156 0.690386 0.711687 0.698012
          0.690946 0.699701 0.708185 0.713012 0.704615 0.70062
          0.694636 0.690374 0.698998 0.714442 0.717881 0.705988
          0.711204 0.710921 0.701289 0.708362 0.689778 0.712813
          0.483468 0.700442 0.703748 0.702431 0.68727 0.712924
          0.69441 0.697291 0.70284 0.703066 0.7078 0.701754
          0.704464 0.704592 0.690214 0.707448 0.698897 0.705398
          0.703852 0.700284 0.701142 0.711116 0.704679 0.702654
          0.694821 0.717392 0.715607 0.697464 0.705716 0.701573
          0.723763 0.707181 0.715259 0.468424 0.685044 0.695566
          0.693648 0.671137 0.689746 0.693063 0.700015 0.698172
          0.696552 0.689221 0.704076 0.708517 0.706596 0.691266
          0.694686 0.707641 0.698224 0.708493 0.706275 0.691156
          0.697635 0.700284 0.681237 0.671933 0.69835 0.689455
          0.691562 0.687686 0.688878 0.692452 0.69252 0.700036
          0.477514 0.696713 0.688503 0.700935 0.686988 0.703917
          0.706422 0.697064 0.702239 0.692417 0.698256 0.702975
          0.705563 0.705059 0.708408 0.699801 0.696276 0.708403
          0.693454 0.702599 0.692412 0.687953 0.694583 0.683345
          0.694243 0.692109 0.685583 0.688752 0.708183 0.691154
          0.698349 0.687585 0.69773 0.484043 0.687894 0.685769
          0.697228 0.706127 0.692553 0.699884 0.695009 0.686012
          0.691486 0.703848 0.708295 0.700942 0.700366 0.70878
          0.697187 0.689038 0.708616 0.71813 0.696313 0.700784
          0.696211 0.679561 0.685823 0.686256 0.694296 0.681948
          0.690318 0.699325 0.689595 0.68461 0.689463 0.6892
          0.470522 0.679689 0.692333 0.69233 0.695212 0.682717
          0.687623 0.692984 0.690264 0.696105 0.692678 0.69644
          0.697581 0.710359 0.697977 0.681698 0.705138 0.701333
          0.692058 0.691317 0.71254 0.716411 0.709607 0.706361
          0.698644 0.709963 0.714781 0.710579 0.715199 0.720621
          0.711457 0.719968 0.719978 0.464477 0.6929 0.689708
          0.687319 0.705634 0.713656 0.695909 0.693229 0.689084
          0.698297 0.686899 0.69232 0.695504 0.710206 0.690117
          0.698146 0.687301 0.70601 0.69722 0.697951 0.691865
          0.680136 0.696742 0.686551 0.69281 0.693065 0.690915
          0.690644 0.69501 0.688653 0.687317 0.686793 0.692423
          0.481619 0.679277 0.687601 0.68788 0.690418 0.694423
          0.693137 0.696665 0.692586 0.693452 0.697382 0.714534
          0.700114 0.711 0.712969 0.698051 0.698706 0.697682
          0.701971 0.688998 0.687803 0.691103 0.699208 0.697334
          0.698791 0.682202 0.702798 0.689745 0.697761 0.701604
          0.705869 0.691302 0.690727 0.45861 0.691296 0.675701
          0.672012 0.680283 0.683564 0.683447 0.707081 0.705504
          0.691527 0.70621 0.704806 0.701474 0.712263 0.70048
          0.707506 0.690356 0.704147 0.705751 0.696748 0.69814
          0.705574 0.704982 0.704961 0.712377 0.722988 0.694446
          0.698848 0.704757 0.701505 0.711435 0.706666 0.709542
          0.461616 0.684785 0.687796 0.683838 0.686091 0.677668
          0.675395 0.692148 0.687329 0.700613 0.697863 0.70581
          0.712621 0.695669 0.693289 0.695637 0.688588 0.705755
          0.698859 0.695942 0.691539 0.688027 0.682182 0.68309
          0.68556 0.703556 0.693336 0.685923 0.692504 0.686911
          0.702437 0.689488 0.707945 0.480056 0.698565 0.701761
          0.707998 0.702154 0.680877 0.71167 0.705622 0.698992
          0.698691 0.705472 0.710403 0.702025 0.706718 0.6917
          0.695939 0.689928 0.681675 0.708386 0.697304 0.693316
          0.691244 0.689379 0.679788 0.693983 0.690939 0.695907
          0.690777 0.690952 0.681693 0.69202 0.684557 0.680945
          0.480255 0.717768 0.700973 0.696501 0.707323 0.694705
          0.701725 0.705843 0.69018 0.693805 0.71658 0.700277
          0.703187 0.719624 0.686353 0.702167 0.70533 0.692162
          0.712437 0.692562 0.694438 0.697378 0.669433 0.695298
          0.696719 0.704698 0.680032 0.686293 0.693818 0.696543
          0.693839 0.683725 0.701658 0.483889 0.68265 0.698217
          0.687511 0.695604 0.701078 0.714505 0.691105 0.694474
          0.708152 0.694669 0.698906 0.707808 0.696373 0.711664
          0.696805 0.696513 0.696795 0.70102 0.701113 0.705862
          0.699177 0.721099 0.705967 0.6944 0.721452 0.709402
          0.698416 0.705099 0.707149 0.715618 0.704767 0.706391
          0.466125 0.710707 0.68436 0.720143 0.701331 0.69491
          0.707482 0.702328 0.687971 0.694115 0.706788 0.698953
          0.694676 0.716056 0.686561 0.710044 0.692078 0.706004
          0.711508 0.695366 0.715136 0.71192 0.708144 0.719216
          0.709294 0.710723 0.704085 0.706305 0.698626 0.705656
          0.724056 0.704385 0.720231 0.486737 0.713286 0.698278
          0.700098 0.70787 0.678294 0.698716 0.711494 0.695775
          0.695327 0.703079 0.683371 0.695287 0.715535 0.695266
          0.694296 0.69781 0.711234 0.683451 0.691918 0.701373
          0.703945 0.715823 0.712432 0.718269 0.723149 0.714659
          0.71883 0.721539 0.700603 0.712871 0.698752 0.70031
          0.465062 0.693527 0.698461 0.714499 0.709812 0.681088
          0.708277 0.705538 0.696121 0.711979 0.69934 0.698949
          0.694078 0.702567 0.707324 0.694437 0.70175 0.700905
          0.71655 0.70376 0.689707 0.69363 0.680305 0.697385
          0.690073 0.698241 0.681335 0.691049 0.700567 0.707048
          0.692937 0.686887 0.689674 0.47773 0.685927 0.69684
          0.696064 0.692841 0.691329 0.705236 0.700516 0.695344
          0.699415 0.696117 0.689112 0.700312 0.692902 0.704114
          0.692541 0.692215 0.693339 0.705236 0.699117 0.701843
          0.682943 0.683561 0.691123 0.689182 0.688706 0.696026
          0.693489 0.707327 0.708604 0.687258 0.69612 0.697229
          0.479146 0.705378 0.694119 0.695075 0.698372 0.709288
          0.691803 0.695131 0.698027 0.700845 0.692954 0.698165
          0.705092 0.722178 0.686779 0.700197 0.704791 0.698457
          0.704336 0.696106 0.695364 0.686477 0.682301 0.693461
          0.698407 0.689812 0.692166 0.686102 0.679801 0.684829
          0.692275 0.680508 0.690716 0.471025 0.700858 0.680682
          0.690815 0.694941 0.700009 0.6906 0.699392 0.700284
          0.694656 0.697649 0.686899 0.70357 0.686354 0.700398
          0.703266 0.704314 0.690444 0.717299 0.696518 0.697753
          0.69056 0.682136 0.686906 0.693029 0.684781 0.685533
          0.689022 0.683701 0.696286 0.6905 0.696541 0.683488
          0.478576 0.703986 0.695428 0.710716 0.702449 0.697801
          0.702131 0.705408 0.680266 0.710733 0.686068 0.686231
          0.713191 0.689761 0.716391 0.698167 0.698671 0.710516
          0.710221 0.702311 0.690074 0.687582 0.678329 0.696197
          0.680776 0.690659 0.687895 0.692646 0.706259 0.686367
          0.679733 0.702304 0.696071 0.478384 0.704011 0.687037
          0.697478 0.705205 0.698512 0.711389 0.690371 0.709187
          0.708553 0.709462 0.693287 0.69847 0.72631 0.687464
          0.706087 0.695725 0.688765 0.708661 0.688981 0.685849
          0.702826 0.68214 0.70135 0.692051 0.708861 0.693319
          0.703846 0.705918 0.705279 0.700965 0.683443 0.679976
          0.47714 0.692178 0.700165 0.693525 0.680319 0.687299
          0.694294 0.698493 0.680456 0.703722 0.692687 0.695198
          0.693699 0.698008 0.696913 0.701579 0.701975 0.7053
          0.692775 0.706269 0.694524 0.710662 0.713343 0.710783
          0.713546 0.705824 0.718239 0.695458 0.700187 0.712886
          0.697123 0.711946 0.704899 0.466822 0.680204 0.684586
          0.682849 0.694081 0.699389 0.700717 0.695306 0.680236
          0.689299 0.695248 0.706839 0.702896 0.705706 0.70602
          0.698524 0.694459 0.700169 0.702509 0.712273 0.710497
          0.723232 0.700568 0.694205 0.712913 0.71536 0.706532
          0.709125 0.704545 0.713177 0.720766 0.7083 0.711073
          0.481097 0.709158 0.680897 0.696401 0.710853 0.703501
          0.718949 0.682954 0.698743 0.707638 0.713522 0.684892
          0.702578 0.718005 0.696451 0.691273 0.695943 0.691646
          0.715506 0.691076 0.700591 0.706277 0.707144 0.705841
          0.701065 0.718634 0.706629 0.710458 0.699592 0.708704
          0.722018 0.721632 0.718477 0.461241 0.674333 0.68256
          0.69689 0.679324 0.688107 0.694201 0.697779 0.692375
          0.705374 0.701761 0.702016 0.702573 0.715854 0.694154
          0.689881 0.694018 0.702096 0.709793 0.694766 0.691531
          0.702373 0.693071 0.697911 0.703633 0.688452 0.69552
          0.700796 0.688719 0.684286 0.692805 0.695671 0.698361
          0.491318 0.686047 0.701611 0.675596 0.674256 0.695
          0.69267 0.68268 0.706522 0.698752 0.696455 0.705677
          0.704058 0.697242 0.701622 0.692023 0.70639 0.700392
          0.699993 0.701866 0.704017 0.699746 0.686018 0.703084
          0.685191 0.68859 0.701227 0.69158 0.695573 0.694866
          0.687223 0.695062 0.690244 0.46529 0.673202 0.700606
          0.699136 0.685318 0.688649 0.694956 0.701522 0.700232
          0.701599 0.684571 0.700483 0.698102 0.68737 0.694934
          0.699955 0.699249 0.703812 0.702674 0.690209 0.697834
          0.704492 0.693226 0.711903 0.703452 0.69736 0.695136
          0.696938 0.701911 0.702534 0.698298 0.678887 0.696527
          0.466922 0.688091 0.699181 0.704488 0.700229 0.700106
          0.703063 0.696874 0.69611 0.701419 0.687954 0.711915
          0.696939 0.689484 0.704311 0.696214 0.701653 0.701161
          0.696463 0.711521 0.6934 0.696143 0.70348 0.68032
          0.699244 0.696898 0.683619 0.692528 0.697596 0.69449
          0.686465 0.69337 0.685755 0.461665 0.660908 0.692957
          0.680676 0.690661 0.6946 0.683374 0.686392 0.701907
          0.70212 0.694318 0.706502 0.703963 0.689807 0.695089
          0.709544 0.706868 0.696879 0.701732 0.689033 0.696585
          0.69159 0.717716 0.711013 0.69737 0.70464 0.720297
          0.713815 0.712277 0.710795 0.709878 0.711536 0.71824
          0.485674 0.705849 0.695694 0.70554 0.695427 0.700042
          0.703117 0.694518 0.703629 0.699205 0.690319 0.701908
          0.707127 0.698319 0.686149 0.703677 0.693613 0.699618
          0.701671 0.702599 0.704171 0.696163 0.694969 0.705999
          0.705339 0.692678 0.7075 0.696348 0.692544 0.701891
          0.69295 0.692649 0.677156 0.471813 0.701217 0.693719
          0.715214 0.6969 0.700752 0.698624 0.698465 0.71126
          0.703929 0.704474 0.683109 0.707339 0.70116 0.70949
          0.699478 0.689877 0.693391 0.708643 0.690329 0.698769
          0.713351 0.695382 0.693925 0.69558 0.703533 0.68222
          0.679686 0.690492 0.696074 0.710944 0.699048 0.684638
          0.471227 0.686394 0.697022 0.693732 0.700016 0.688916
          0.694213 0.6974 0.708086 0.701289 0.687992 0.700912
          0.709962 0.691112 0.692746 0.702227 0.69839 0.695487
          0.693089 0.711602 0.697414 0.699906 0.694653 0.709626
          0.680778 0.682682 0.700179 0.699402 0.698039 0.692483
          0.690947 0.688754 0.69114 0.487746 0.723619 0.704638
          0.693105 0.687037 0.704081 0.703713 0.701087 0.692183
          0.702265 0.707696 0.682483 0.702762 0.712709 0.683032
          0.697344 0.688892 0.686133 0.70107 0.704615 0.708903
          0.705246 0.702809 0.708942 0.701324 0.730056 0.705582
          0.707176 0.709119 0.715454 0.70447 0.704575 0.700672
          0.466052 0.699657 0.698421 0.694539 0.710369 0.686787
          0.704924 0.704027 0.699889 0.682927 0.698415 0.702037
          0.684282 0.722715 0.704512 0.686955 0.700154 0.700682
          0.717802 0.690964 0.690174 0.693448 0.693003 0.696743
          0.683645 0.71433 0.691154 0.692296 0.686115 0.699301
          0.701233 0.699145 0.691813 0.475094 0.700079 0.72075
          0.703919 0.686108 0.689915 0.69629 0.709959 0.699785
          0.691776 0.702531 0.692424 0.701647 0.70416 0.695556
          0.700671 0.699968 0.70345 0.712697 0.702975 0.707814
          0.698781 0.705786 0.703101 0.701805 0.727006 0.714043
          0.716604 0.701747 0.714905 0.706532 0.703716 0.720684
          0.470078 0.666585 0.695522 0.702943 0.699875 0.696925
          0.683443 0.694855 0.705438 0.704108 0.676303 0.690998
          0.676004 0.687901 0.695214 0.690765 0.699648 0.706899
          0.701545 0.68877 0.719229 0.700377 0.714616 0.726336
          0.706767 0.710362 0.710994 0.719652 0.71957 0.710953
          0.710031 0.721653 0.720927 0.466478 0.67646 0.679477
          0.677631 0.688486 0.693601 0.697572 0.688357 0.691524
          0.705739 0.701371 0.695122 0.711957 0.692958 0.699282
          0.700117 0.706082 0.7027 0.700901 0.689754 0.710179
          0.709423 0.712187 0.700604 0.705988 0.717876 0.711867
          0.705584 0.702375 0.716008 0.70052 0.716662 0.716645
          0.459425 0.685396 0.681884 0.689018 0.691169 0.691935
          0.692615 0.68948 0.694324 0.722399 0.698779 0.692106
          0.70233 0.710738 0.703069 0.709975 0.687714 0.704456
          0.717374 0.697444 0.72066 0.715149 0.723775 0.711392
          0.68861 0.708018 0.703541 0.701805 0.712233 0.712782
          0.70334 0.707097 0.705959 0.493157 0.713199 0.706583
          0.709662 0.701713 0.721474 0.690157 0.693178 0.714069
          0.691292 0.704585 0.686926 0.703685 0.715943 0.691903
          0.699123 0.682467 0.689201 0.694274 0.697989 0.704561
          0.705675 0.705908 0.704665 0.690914 0.712165 0.705983
          0.705381 0.705101 0.708697 0.713473 0.709868 0.698198
          0.457326 0.678846 0.693402 0.690706 0.688571 0.68527
          0.698168 0.68081 0.682414 0.685536 0.692745 0.684016
          0.706258 0.706253 0.715778 0.704035 0.692215 0.695965
          0.707098 0.7105 0.683233 0.694824 0.685112 0.692323
          0.704417 0.703457 0.689489 0.684167 0.69324 0.69896
          0.700481 0.69208 0.693019 0.485182 0.689373 0.699582
          0.698798 0.691789 0.707653 0.698103 0.691097 0.692325
          0.709134 0.705366 0.691852 0.711426 0.682614 0.703016
          0.692331 0.700511 0.700278 0.708406 0.714629 0.6975
          0.697591 0.695237 0.686685 0.701319 0.694432 0.706079
          0.710235 0.701145 0.68782 0.703517 0.702948 0.699416
          0.479226 0.680881 0.702681 0.689541 0.678507 0.687604
          0.685221 0.712386 0.705253 0.693099 0.679801 0.690326
          0.698975 0.709257 0.711232 0.705931 0.702003 0.699813
          0.700963 0.712851 0.694754 0.688734 0.693809 0.689807
          0.69239 0.690867 0.687656 0.686983 0.692601 0.696206
          0.683342 0.688721 0.700121 0.475035 0.670681 0.694025
          0.691942 0.687953 0.688661 0.673709 0.697726 0.703402
          0.707775 0.687461 0.698751 0.713389 0.6854 0.705009
          0.712914 0.697761 0.680595 0.695295 0.707774 0.710093
          0.711116 0.708676 0.717599 0.721489 0.715027 0.721667
          0.713094 0.706898 0.703516 0.697626 0.714988 0.726476
          0.468501 0.67606 0.690208 0.685293 0.688138 0.684184
          0.680053 0.695916 0.702441 0.694251 0.692981 0.698728
          0.701271 0.684936 0.690683 0.70768 0.697501 0.691624
          0.693284 0.702388 0.700292 0.714966 0.698446 0.699679
          0.696375 0.688732 0.694072 0.700651 0.691093 0.686683
          0.688298 0.69543 0.713064 0.470003 0.682134 0.698864
          0.67966 0.684874 0.687622 0.704528 0.682272 0.681319
          0.70141 0.707519 0.69387 0.697891 0.707577 0.691432
          0.691887 0.69837 0.699244 0.701607 0.711806 0.71388
          0.694115 0.697013 0.689109 0.677783 0.700654 0.698071
          0.691265 0.68587 0.69313 0.682905 0.688407 0.697651
          0.473491 0.708324 0.684938 0.709683 0.701647 0.699385
          0.692766 0.689453 0.695478 0.697508 0.704131 0.709073
          0.707544 0.717584 0.687913 0.709943 0.697154 0.697663
          0.720908 0.694156 0.704297 0.710045 0.689903 0.705446
          0.719357 0.718303 0.721101 0.707548 0.707136 0.715118
          0.727858 0.710275 0.712396 0.482085 0.698663 0.682673
          0.713962 0.707846 0.715129 0.713506 0.687916 0.704581
          0.690741 0.704379 0.706019 0.705794 0.70718 0.689033
          0.697849 0.705238 0.691978 0.711419 0.695348 0.708316
          0.701308 0.691712 0.696009 0.718621 0.705987 0.696941
          0.708053 0.710426 0.698654 0.726422 0.712281 0.71397
          0.466738 0.677807 0.698303 0.695891 0.687195 0.677241
          0.684659 0.692251 0.698728 0.707649 0.687143 0.689546
          0.705744 0.682426 0.706926 0.696866 0.701738 0.696424
          0.696807 0.697046 0.710707 0.710209 0.685888 0.699446
          0.695792 0.690785 0.701398 0.705233 0.701542 0.711405
          0.697925 0.712282 0.701398 0.48219 0.691664 0.69125
          0.690351 0.705176 0.698918 0.687172 0.717285 0.691223
          0.695246 0.691845 0.713803 0.697973 0.701193 0.701439
          0.697635 0.693573 0.715872 0.705158 0.705323 0.7034
          0.706668 0.704639 0.702387 0.710458 0.70849 0.70451
          0.699329 0.698228 0.699333 0.698073 0.706038 0.708919
          0.478605 0.687605 0.691648 0.678063 0.683108 0.682604
          0.69486 0.708856 0.685158 0.691187 0.70826 0.688444
          0.705999 0.704096 0.707935 0.692452 0.69384 0.715098
          0.696081 0.714009 0.692097 0.690045 0.681056 0.685335
          0.690522 0.669794 0.696854 0.69032 0.687175 0.691676
          0.687519 0.694043 0.690279 0.471936 0.696407 0.700572
          0.68734 0.712008 0.698682 0.708258 0.687689 0.699903
          0.705982 0.706686 0.695788 0.695301 0.699807 0.704102
          0.698812 0.707156 0.698624 0.698282 0.712844 0.691079
          0.693033 0.684288 0.690981 0.688889 0.702539 0.696835
          0.690511 0.686494 0.68891 0.685944 0.692293 0.697369
          0.493535 0.70206 0.699172 0.689198 0.712621 0.704948
          0.708619 0.700479 0.694397 0.706897 0.700633 0.707517
          0.693081 0.698863 0.708611 0.699964 0.700023 0.701185
          0.712486 0.702135 0.702633 0.688266 0.679545 0.686463
          0.691513 0.707383 0.689389 0.685805 0.682993 0.686676
          0.698034 0.703983 0.685379 0.493824 0.707964 0.693938
          0.694845 0.709795 0.693846 0.705082 0.702223 0.701577
          0.693294 0.698068 0.701954 0.695843 0.707764 0.698312
          0.708612 0.702565 0.68916 0.704977 0.69628 0.697644
          0.667333 0.679552 0.697496 0.684747 0.712442 0.676461
          0.699737 0.692926 0.689083 0.705358 0.674758 0.695087
          0.465354 0.66925 0.707497 0.6976 0.684474 0.680351
          0.681418 0.698162 0.692056 0.700139 0.698201 0.699183
          0.718393 0.690541 0.70555 0.699457 0.699147 0.677341
          0.69316 0.704647 0.693572 0.706133 0.725694 0.70909
          0.712208 0.706036 0.721094 0.722366 0.708741 0.712394
          0.708036 0.713067 0.711262 0.464731 0.682597 0.692276
          0.692124 0.669914 0.68023 0.689148 0.71119 0.699723
          0.703215 0.684588 0.696286 0.696603 0.70075 0.701727
          0.694831 0.6959 0.708589 0.699478 0.709079 0.698322
          0.697186 0.69378 0.695015 0.704895 0.69053 0.695899
          0.693373 0.689752 0.694304 0.690383 0.694574 0.687774
          0.473221 0.679396 0.68614 0.693042 0.698731 0.690759
          0.687871 0.698111 0.68727 0.70094 0.707485 0.702962
          0.699963 0.716403 0.696558 0.708174 0.694262 0.704461
          0.721113 0.688962 0.711821 0.719737 0.714945 0.703721
          0.720301 0.735192 0.706806 0.704883 0.708324 0.710583
          0.72301 0.716889 0.704494 0.47224 0.687712 0.697248
          0.691376 0.705201 0.704711 0.678078 0.71534 0.700093
          0.704674 0.694109 0.703223 0.687257 0.694361 0.694127
          0.690812 0.701953 0.712478 0.688761 0.703521 0.694398
          0.698161 0.703155 0.703306 0.699652 0.685919 0.697557
          0.709802 0.681642 0.698831 0.677357 0.701767 0.692213
          0.494306 0.691338 0.709563 0.702388 0.699286 0.689503
          0.707282 0.695562 0.701859 0.714171 0.698178 0.699006
          0.707628 0.692036 0.705586 0.707962 0.686703 0.71263
          0.705044 0.693535 0.694888 0.688537 0.698382 0.701149
          0.702769 0.688352 0.697527 0.697369 0.676194 0.708429
          0.707214 0.692089 0.706255 0.482597 0.687694 0.695479
          0.694344 0.703252 0.70863 0.687814 0.712125 0.694964
          0.711352 0.692789 0.706659 0.709908 0.68675 0.705954
          0.689533 0.711261 0.695868 0.697974 0.710654 0.713779
          0.689571 0.687746 0.701095 0.696635 0.698921 0.703976
          0.698421 0.687779 0.704551 0.682741 0.692063 0.707646
          0.483657 0.693246 0.692814 0.704337 0.695077 0.70067
          0.689021 0.694756 0.683353 0.684304 0.692977 0.697752
          0.712091 0.708353 0.689525 0.67986 0.712933 0.708679
          0.693759 0.686966 0.695932 0.688531 0.706312 0.708292
          0.706097 0.698053 0.682629 0.700693 0.710021 0.711787
          0.697379 0.693677 0.719009 0.468894 0.696528 0.672234
          0.688448 0.6946 0.68144 0.695068 0.681429 0.708377
          0.689711 0.70025 0.696036 0.698681 0.726384 0.685882
          0.711146 0.695822 0.706338 0.712059 0.697466 0.688082
          0.697731 0.68363 0.685074 0.692132 0.700936 0.694222
          0.681901 0.6858 0.696657 0.687769 0.688022 0.697289
          0.484746 0.718539 0.702686 0.7122 0.709314 0.703505
          0.693811 0.704123 0.707717 0.695296 0.706738 0.689699
          0.704816 0.714236 0.705427 0.685863 0.688364 0.709499
          0.711241 0.714114 0.683049 0.682397 0.68615 0.697029
          0.698867 0.686697 0.685091 0.695247 0.688442 0.681503
          0.698138 0.700079 0.685689 0.484863 0.677301 0.70815
          0.715102 0.675756 0.687499 0.691816 0.696198 0.695039
          0.696939 0.690614 0.706978 0.706218 0.699413 0.700084
          0.717072 0.701875 0.68529 0.706577 0.70265 0.698177
          0.703228 0.700322 0.700043 0.713412 0.680375 0.69909
          0.698904 0.701625 0.701994 0.697275 0.706079 0.707313
          0.480673 0.689864 0.711889 0.695827 0.687273 0.704167
          0.70297 0.693586 0.697719 0.701216 0.688889 0.708947
          0.694937 0.698069 0.702833 0.68821 0.714495 0.711495
          0.696825 0.686686 0.705721 0.720787 0.697619 0.714642
          0.714027 0.702083 0.712746 0.709655 0.719705 0.712118
          0.695171 0.718857 0.717164 0.463704 0.669681 0.686477
          0.702583 0.685086 0.686686 0.687533 0.688628 0.701413
          0.696917 0.697225 0.699369 0.71818 0.689747 0.701925
          0.699888 0.709886 0.693615 0.684287 0.706944 0.708655
          0.71078 0.703738 0.724533 0.715567 0.701663 0.709396
          0.711765 0.694312 0.701112 0.712572 0.716504 0.714867
          0.466174 0.675565 0.691388 0.680525 0.701599 0.693786
          0.693858 0.69731 0.697229 0.680293 0.684187 0.699913
          0.704328 0.701586 0.716705 0.699223 0.70204 0.703792
          0.71114 0.699254 0.705229 0.728003 0.711575 0.710799
          0.714853 0.701387 0.708321 0.704052 0.723911 0.722869
          0.71045 0.712111 0.718024 0.479715 0.6926 0.698386
          0.695801 0.711564 0.701493 0.706385 0.695661 0.693721
          0.712981 0.695808 0.702806 0.710668 0.701585 0.706683
          0.690539 0.695738 0.714207 0.700128 0.69909 0.70254
          0.701583 0.703695 0.696431 0.711574 0.7101 0.699277
          0.717201 0.705294 0.706396 0.697994 0.711524 0.712352
          0.481524 0.67385 0.697261 0.69194 0.707673 0.686091
          0.708348 0.700582 0.706087 0.689518 0.6893 0.711199
          0.704272 0.701386 0.707873 0.701312 0.697702 0.708971
          0.704239 0.692763 0.70984 0.719249 0.708997 0.698976
          0.706475 0.707996 0.705281 0.712984 0.707087 0.704811
          0.68801 0.703914 0.707487 0.479261 0.68179 0.67829
          0.678782 0.70166 0.677153 0.700059 0.703908 0.693093
          0.71111 0.699098 0.703978 0.690154 0.711775 0.696261
          0.716031 0.68564 0.714268 0.700706 0.704864 0.715924
          0.718605 0.70716 0.697892 0.714538 0.702728 0.689864
          0.700315 0.705762 0.712177 0.716292 0.697985 0.707856
          0.489638 0.687488 0.697384 0.701174 0.708754 0.701132
          0.68465 0.715593 0.700901 0.705335 0.690666 0.70831
          0.687971 0.713004 0.698251 0.703525 0.69698 0.700507
          0.70225 0.703153 0.718749 0.70603 0.714491 0.699311
          0.725103 0.694976 0.722468 0.719947 0.708869 0.713545
          0.689611 0.715006 0.711708 0.467377 0.671271 0.674749
          0.697806 0.681662 0.703246 0.688988 0.682453 0.693628
          0.703127 0.693054 0.703398 0.699756 0.709276 0.702732
          0.693616 0.708384 0.696689 0.709469 0.697091 0.713767
          0.716256 0.713045 0.710995 0.710229 0.702915 0.712328
          0.716188 0.703272 0.70721 0.702332 0.70883 0.707531
          0.47046 0.718466 0.691648 0.708219 0.696161 0.695848
          0.706902 0.688757 0.670463 0.705621 0.694297 0.71529
          0.70517 0.705953 0.691428 0.718963 0.695142 0.693009
          0.696567 0.700147 0.687746 0.701575 0.717098 0.70204
          0.717859 0.720438 0.689157 0.70413 0.698429 0.692694
          0.712987 0.723681 0.721494 0.476912 0.671887 0.71385
          0.696905 0.686799 0.688584 0.686619 0.696109 0.712043
          0.699095 0.691784 0.698451 0.694879 0.68083 0.704203
          0.701001 0.702557 0.694476 0.697176 0.708168 0.691618
          0.701286 0.710268 0.698385 0.704731 0.684933 0.719885
          0.699793 0.699246 0.722041 0.696197 0.698771 0.706227
          0.487308 0.678633 0.705118 0.693856 0.698198 0.707372
          0.685005 0.70733 0.686272 0.693679 0.695877 0.707229
          0.694236 0.703018 0.708664 0.686213 0.696066 0.69508
          0.693427 0.712552 0.703113 0.708766 0.695806 0.710126
          0.696051 0.685297 0.687126 0.698655 0.695045 0.694024
          0.688188 0.696584 0.68935 0.485197 0.718461 0.704118
          0.695396 0.695805 0.70175 0.700565 0.693037 0.693835
          0.689628 0.700535 0.704153 0.699555 0.701607 0.707683
          0.689591 0.700651 0.68775 0.710867 0.698295 0.685596
          0.702179 0.693013 0.683114 0.690222 0.706953 0.697544
          0.699088 0.689694 0.69649 0.691603 0.698923 0.696191
          0.465071 0.709093 0.691572 0.708401 0.700687 0.680109
          0.702236 0.713192 0.701953 0.693376 0.704485 0.708769
          0.714786 0.710603 0.692918 0.703326 0.714765 0.692506
          0.71273 0.694564 0.703016 0.691688 0.707689 0.681003