<?xml version="1.0"?>
<VTKFile type="PolyData" version="0.1" byte_order="LittleEndian" header_type="UInt32" compressor="vtkZLibDataCompressor">
  <PolyData>
    <Piece NumberOfPoints="7920" NumberOfVerts="0" NumberOfLines="0" NumberOfStrips="0" NumberOfPolys="0">
      <PointData Scalars="Calcium Concentration">
        <DataArray type="Float32" Name="Calcium Concentration" format="ascii" RangeMin="0.48342400789260864" RangeMax="0.7362250089645386">
          0.503107 0.703341 0.698325 0.696232 0.70195 0.686255
          0.689385 0.706212 0.69315 0.69287 0.701888 0.708884
          0.706722 0.710463 0.692236 0.70137 0.690454 0.703396
          0.716233 0.695157 0.693028 0.675879 0.693278 0.687611
          0.685361 0.69856 0.692195 0.695647 0.693279 0.688586
          0.704349 0.687091 0.687837 0.513385 0.696663 0.700554
          0.693595 0.700531 0.702855 0.696807 0.703359 0.714328
          0.696648 0.69378 0.707799 0.690718 0.70308 0.707586
          0.691699 0.696757 0.697384 0.699187 0.699649 0.693138
          0.698783 0.687286 0.678284 0.677976 0.699842 0.700977
          0.688909 0.683608 0.698251 0.700835 0.682432 0.689488
          0.508717 0.686509 0.692612 0.681444 0.688852 0.687065
          0.693602 0.692798 0.694391 0.706673 0.692382 0.700541
          0.70499 0.706524 0.709605 0.701617 0.708454 0.720014
          0.722079 0.701347 0.724829 0.707469 0.717315 0.708088
          0.707966 0.715476 0.707169 0.701075 0.71533 0.701273
          0.706666 0.709917 0.711663 0.510514 0.690227 0.714032
          0.688351 0.699891 0.68825 0.70742 0.691242 0.713344
          0.706142 0.693648 0.699612 0.690545 0.702498 0.699149
          0.699484 0.701854 0.693544 0.704476 0.702227 0.703197
          0.686136 0.698062 0.693227 0.692185 0.712284 0.703057
          0.704165 0.700225 0.698891 0.699065 0.69824 0.696781
          0.505028 0.683474 0.689732 0.695879 0.684014 0.686987
          0.686022 0.685994 0.694979 0.703849 0.706423 0.694992
          0.702912 0.700223 0.692577 0.705571 0.7044 0.696817
          0.702856 0.697973 0.695008 0.690948 0.693299 0.680732
          0.687259 0.689335 0.685372 0.692657 0.687114 0.692315
          0.686098 0.695936 0.701357 0.522997 0.701163 0.691518
          0.691147 0.683982 0.714264 0.690858 0.699665 0.707838
          0.690182 0.685753 0.700089 0.700626 0.703182 0.705335
          0.701973 0.697394 0.692009 0.717923 0.701289 0.696396
          0.700982 0.703001 0.695296 0.697577 0.723203 0.710707
          0.701312 0.69966 0.710381 0.719014 0.703888 0.700111
          0.510051 0.683303 0.687805 0.683594 0.677487 0.682965
          0.678397 0.692843 0.711968 0.706263 0.687881 0.699464
          0.699617 0.719058 0.693199 0.701613 0.704012 0.694454
          0.701288 0.697194 0.710191 0.702763 0.696605 0.699664
          0.697858 0.713541 0.7152 0.710585 0.713179 0.696057
          0.719234 0.713365 0.710127 0.50183 0.688796 0.678071
          0.689108 0.689227 0.69708 0.684361 0.662985 0.702806
          0.693434 0.710485 0.713439 0.69706 0.704534 0.696838
          0.696549 0.704848 0.710562 0.707251 0.692128 0.694447
          0.68718 0.692294 0.683426 0.695555 0.69727 0.70169
          0.687578 0.690712 0.674222 0.704846 0.674378 0.682266
          0.492131 0.685229 0.685699 0.691295 0.682138 0.689566
          0.683855 0.702327 0.704164 0.696613 0.703604 0.711741
          0.702906 0.71241 0.707088 0.703537 0.705891 0.695327
          0.711107 0.686171 0.701857 0.708773 0.702409 0.705142
          0.71619 0.721282 0.699941 0.702894 0.697618 0.701191
          0.71749 0.703383 0.713633 0.519018 0.70139 0.699411
          0.702089 0.689142 0.695053 0.700164 0.700156 0.708041
          0.699271 0.717935 0.69101 0.69359 0.715562 0.690915
          0.695774 0.692376 0.709089 0.705923 0.703671 0.698584
          0.699 0.693711 0.699146 0.716003 0.716979 0.703234
          0.711443 0.70558 0.699367 0.705559 0.697017 0.712991
          0.521204 0.705934 0.707147 0.702453 0.696824 0.709183
          0.706333 0.694063 0.700632 0.699043 0.704837 0.697507
          0.70175 0.698406 0.687702 0.708391 0.693463 0.706366
          0.6961 0.696731 0.701027 0.704173 0.711112 0.703936
          0.697461 0.716493 0.718365 0.703352 0.712323 0.703196
          0.716563 0.708092 0.720067 0.49521 0.691251 0.692749
          0.696331 0.675456 0.689229 0.696002 0.703792 0.69294
          0.693513 0.69236 0.699692 0.710906 0.701832 0.696187
          0.695298 0.704782 0.700004 0.709076 0.71453 0.69603
          0.698077 0.694922 0.684002 0.676417 0.693233 0.689012
          0.696467 0.682476 0.687087 0.691725 0.688095 0.701738
          0.521762 0.700989 0.68837 0.711812 0.685 0.703439
          0.71119 0.700956 0.698358 0.691772 0.700421 0.698944
          0.703014 0.704271 0.705221 0.705967 0.70045 0.703294
          0.69282 0.702321 0.689837 0.696962 0.696893 0.678276
          0.698867 0.692999 0.680534 0.684886 0.710412 0.688726
          0.698333 0.689195 0.69818 0.515916 0.690118 0.686395
          0.694091 0.701301 0.691768 0.701925 0.693926 0.688088
          0.694655 0.70698 0.708653 0.702385 0.69824 0.707204
          0.69925 0.690687 0.702126 0.721187 0.69155 0.698913
          0.696687 0.675319 0.688064 0.695865 0.696954 0.684607
          0.699148 0.710435 0.687338 0.688475 0.696687 0.688713
          0.504549 0.684458 0.689783 0.693475 0.692128 0.687346
          0.689262 0.697604 0.686438 0.693043 0.697615 0.695407
          0.695947 0.710408 0.711148 0.688084 0.703966 0.704804
          0.68738 0.69458 0.710451 0.714074 0.713831 0.705715
          0.700674 0.70644 0.71996 0.714856 0.715119 0.713825
          0.709929 0.720684 0.720783 0.501336 0.690437 0.693403
          0.689407 0.710413 0.709935 0.692721 0.69412 0.688803
          0.698658 0.692568 0.69867 0.69601 0.712339 0.699159
          0.700046 0.68534 0.708778 0.697891 0.701639 0.68743
          0.673804 0.695471 0.68303 0.69582 0.692441 0.690194
          0.682431 0.690018 0.68665 0.690879 0.681595 0.687911
          0.513875 0.682527 0.689311 0.683982 0.686208 0.701165
          0.692646 0.700944 0.686393 0.69289 0.692153 0.704898
          0.707467 0.705609 0.70526 0.705738 0.69918 0.707078
          0.701973 0.68692 0.680381 0.684643 0.697358 0.694084
          0.698928 0.682981 0.700685 0.689448 0.690792 0.701079
          0.703233 0.690579 0.690593 0.494068 0.69652 0.677575
          0.672536 0.687407 0.685748 0.683768 0.709447 0.706581
          0.689355 0.701837 0.700372 0.690123 0.712106 0.704288
          0.709855 0.689785 0.698005 0.708574 0.691942 0.696529
          0.713961 0.705773 0.704355 0.714391 0.7177 0.69891
          0.708229 0.703727 0.69926 0.71171 0.704031 0.711928
          0.502262 0.683179 0.683871 0.684649 0.688284 0.681029
          0.678939 0.694988 0.678012 0.702715 0.696627 0.704954
          0.712484 0.700202 0.69806 0.694384 0.692017 0.708661
          0.702458 0.700219 0.691087 0.689865 0.677523 0.686969
          0.691414 0.697344 0.689032 0.684423 0.691212 0.690743
          0.703893 0.696614 0.706777 0.512548 0.699079 0.695986
          0.708939 0.70713 0.683742 0.71171 0.699074 0.697272
          0.695141 0.706289 0.711034 0.697887 0.70381 0.698599
          0.690922 0.684039 0.682518 0.705086 0.697733 0.690526
          0.694265 0.688927 0.690099 0.693052 0.685038 0.696488
          0.695977 0.684738 0.690229 0.694849 0.685076 0.684037
          0.510922 0.722796 0.701033 0.696865 0.708149 0.691705
          0.695889 0.703008 0.69715 0.696452 0.717932 0.696442
          0.697483 0.713042 0.688347 0.703914 0.70276 0.69537
          0.701322 0.695517 0.691697 0.696075 0.679404 0.694072
          0.699039 0.70379 0.678997 0.686339 0.694735 0.696956
          0.698326 0.680797 0.69749 0.519058 0.687492 0.696712
          0.681838 0.696197 0.708772 0.712371 0.684974 0.698693
          0.704784 0.695242 0.705019 0.701035 0.696908 0.707867
          0.697085 0.699147 0.697248 0.699216 0.699246 0.707084
          0.69932 0.714276 0.701324 0.695146 0.719842 0.712108
          0.698466 0.711711 0.713271 0.716878 0.70211 0.703584
          0.507789 0.714548 0.684814 0.719067 0.703321 0.697349
          0.708216 0.700424 0.691313 0.697069 0.705735 0.700978
          0.686071 0.724526 0.69263 0.710317 0.693729 0.699468
          0.708077 0.692484 0.714783 0.709883 0.706886 0.712713
          0.70599 0.714533 0.698354 0.705332 0.70788 0.710169
          0.72425 0.705541 0.715383 0.522034 0.709312 0.697004
          0.705731 0.705333 0.683878 0.700625 0.715305 0.698307
          0.70185 0.704655 0.685854 0.701946 0.713204 0.701694
          0.702285 0.694264 0.710979 0.683787 0.685737 0.704442
          0.69765 0.719198 0.704987 0.71928 0.72921 0.714348
          0.723601 0.727845 0.704288 0.716688 0.695387 0.704013
          0.499517 0.6928 0.70013 0.710843 0.706587 0.689819
          0.705308 0.704633 0.702483 0.715795 0.706726 0.697185
          0.704375 0.700536 0.708223 0.686081 0.703406 0.706286
          0.714245 0.70136 0.689148 0.690822 0.685092 0.703362
          0.689542 0.704347 0.687818 0.698283 0.694985 0.70242
          0.692257 0.683577 0.687217 0.514444 0.693563 0.702725
          0.697072 0.692102 0.692443 0.708274 0.702436 0.696053
          0.702903 0.696804 0.688569 0.705584 0.688594 0.711038
          0.696863 0.691721 0.697526 0.700981 0.695447 0.697763
          0.689118 0.686096 0.684879 0.69639 0.692098 0.696637
          0.698388 0.700556 0.705302 0.68542 0.690969 0.697582
          0.517279 0.708541 0.695041 0.694169 0.696594 0.703923
          0.702203 0.699202 0.70204 0.702535 0.697582 0.700365
          0.704381 0.720563 0.683299 0.700146 0.694684 0.700869
          0.703972 0.702621 0.692453 0.688273 0.68716 0.683523
          0.694703 0.695064 0.691602 0.689953 0.682925 0.6873
          0.697092 0.679515 0.682677 0.510241 0.698952 0.683456
          0.690574 0.697217 0.707541 0.691953 0.697763 0.696475
          0.691718 0.701847 0.696094 0.699175 0.695492 0.705929
          0.704624 0.698232 0.691832 0.722613 0.695265 0.692788
          0.695718 0.680999 0.683369 0.692863 0.68482 0.68393
          0.690715 0.683926 0.69868 0.68801 0.691391 0.683944
          0.507664 0.705031 0.696379 0.714677 0.702106 0.69796
          0.70366 0.698971 0.67579 0.7165 0.689985 0.690321
          0.711085 0.696887 0.71059 0.698479 0.697132 0.71452
          0.70501 0.697868 0.698795 0.687766 0.677907 0.694958
          0.68555 0.688334 0.685996 0.69584 0.701985 0.677105
          0.688285 0.696354 0.696857 0.51267 0.705472 0.694581
          0.694291 0.709896 0.695216 0.715236 0.686429 0.705602
          0.70739 0.702586 0.700082 0.689373 0.724144 0.689488
          0.697894 0.696677 0.694024 0.712756 0.688785 0.690103
          0.697025 0.677253 0.703019 0.693447 0.703782 0.691952
          0.69594 0.710729 0.704692 0.698703 0.686195 0.686977
          0.510068 0.689807 0.698184 0.692898 0.686904 0.685557
          0.693156 0.703983 0.674133 0.705168 0.691711 0.694158
          0.700298 0.694526 0.695362 0.710876 0.697799 0.704497
          0.701331 0.696019 0.700811 0.712659 0.707541 0.707256
          0.724858 0.704914 0.709666 0.69972 0.70386 0.716708
          0.695589 0.713572 0.702421 0.499453 0.68135 0.690378
          0.688847 0.696896 0.694197 0.702083 0.701458 0.684949
          0.691024 0.699814 0.711421 0.698687 0.710489 0.710874
          0.698667 0.691881 0.692733 0.70622 0.70328 0.714269
          0.732322 0.694934 0.696975 0.711444 0.718616 0.703969
          0.708114 0.702099 0.714801 0.717425 0.714324 0.709097
          0.513459 0.711618 0.683633 0.697101 0.707465 0.695692
          0.71803 0.683975 0.700805 0.70853 0.718713 0.685193
          0.700084 0.711536 0.700644 0.69436 0.694652 0.689338
          0.709877 0.692595 0.702382 0.705387 0.709517 0.697718
          0.699453 0.71591 0.705507 0.712394 0.707231 0.710862
          0.715045 0.720401 0.715872 0.498747 0.679852 0.679737
          0.695313 0.676822 0.693466 0.696546 0.698306 0.689629
          0.70648 0.69795 0.692519 0.698567 0.709921 0.69345
          0.691228 0.696883 0.705752 0.708359 0.701055 0.692775
          0.698458 0.692347 0.695865 0.699661 0.697368 0.686988
          0.691394 0.683029 0.686481 0.695876 0.689044 0.693269
          0.520281 0.699078 0.699447 0.680941 0.67638 0.697324
          0.699425 0.688938 0.701779 0.70258 0.693111 0.703324
          0.699342 0.697578 0.708733 0.704006 0.709296 0.711374
          0.698341 0.703182 0.700003 0.694368 0.686249 0.700925
          0.683767 0.688638 0.703033 0.69072 0.688708 0.695884
          0.693011 0.697606 0.689762 0.501768 0.675326 0.700582
          0.701389 0.681918 0.68653 0.696051 0.699415 0.702018
          0.70309 0.683269 0.695177 0.69486 0.687475 0.69038
          0.69608 0.69924 0.703318 0.696306 0.693503 0.703784
          0.703824 0.694173 0.713918 0.708758 0.692184 0.697511
          0.695267 0.698287 0.707647 0.702456 0.676661 0.695193
          0.503508 0.686246 0.701286 0.709704 0.700537 0.702131
          0.698702 0.706275 0.687311 0.703222 0.695338 0.713612
          0.704915 0.694481 0.700052 0.692582 0.707117 0.69921
          0.706293 0.70788 0.698106 0.696725 0.708371 0.677465
          0.699214 0.697434 0.688129 0.68997 0.701598 0.693059
          0.682936 0.68722 0.686069 0.493341 0.66511 0.699533
          0.68709 0.686401 0.699369 0.689628 0.691921 0.694416
          0.698219 0.691412 0.703493 0.703331 0.695101 0.695527
          0.713346 0.707929 0.699398 0.694216 0.686876 0.706154
          0.697978 0.716798 0.698421 0.705061 0.711345 0.726751
          0.719413 0.712126 0.705653 0.708552 0.706152 0.715282
          0.519259 0.705183 0.70175 0.713951 0.69258 0.69812
          0.704695 0.695119 0.701045 0.699601 0.692002 0.695966
          0.7081 0.704447 0.691875 0.706887 0.698255 0.699658
          0.703642 0.702204 0.701411 0.700357 0.691999 0.705233
          0.7028 0.686572 0.702716 0.697271 0.693791 0.709223
          0.695943 0.695555 0.678736 0.505568 0.703098 0.69462
          0.716539 0.702859 0.702608 0.704459 0.694992 0.711138
          0.699507 0.701779 0.689355 0.712165 0.697095 0.71345
          0.705214 0.685893 0.690313 0.70367 0.695488 0.699001
          0.709688 0.694254 0.696708 0.69818 0.702994 0.681348
          0.679041 0.689849 0.69284 0.714818 0.695699 0.686786
          0.50501 0.692234 0.695345 0.694448 0.699903 0.68874
          0.697055 0.695908 0.708643 0.703012 0.695652 0.698824
          0.721185 0.686586 0.693934 0.703744 0.698649 0.697963
          0.694303 0.71336 0.69791 0.694575 0.700823 0.706264
          0.685414 0.677814 0.694525 0.701294 0.70014 0.701239
          0.688515 0.688446 0.690546 0.521137 0.72413 0.703783
          0.694272 0.687168 0.714837 0.706704 0.697383 0.689714
          0.695977 0.706489 0.68323 0.698766 0.708916 0.683843
          0.697722 0.696221 0.690008 0.69928 0.708012 0.713254
          0.708245 0.706061 0.707648 0.701587 0.721891 0.704366
          0.704672 0.709378 0.715113 0.700124 0.698391 0.70074
          0.500564 0.697996 0.691291 0.697041 0.703485 0.6926
          0.698585 0.705227 0.703416 0.687529 0.702375 0.699864
          0.684446 0.713965 0.692654 0.683243 0.698028 0.704527
          0.715572 0.690624 0.697181 0.694245 0.692324 0.695241
          0.693594 0.71048 0.694359 0.691741 0.678843 0.700972
          0.703158 0.697747 0.685613 0.511953 0.703577 0.71213
          0.70132 0.697772 0.684048 0.700538 0.71018 0.701593
          0.696709 0.70414 0.693489 0.701691 0.703517 0.697948
          0.69722 0.690766 0.701004 0.711045 0.702514 0.706705
          0.699035 0.705191 0.704523 0.70904 0.720901 0.706354
          0.719653 0.70712 0.707285 0.705399 0.701366 0.713746
          0.498504 0.660608 0.700054 0.704273 0.690709 0.695291
          0.68216 0.700869 0.704674 0.703551 0.677925 0.688472
          0.68342 0.686078 0.699481 0.69401 0.695845 0.706149
          0.697437 0.688612 0.723802 0.702438 0.710591 0.731516
          0.711466 0.710708 0.703761 0.722285 0.720193 0.7149
          0.706594 0.718678 0.72144 0.502846 0.681777 0.682912
          0.682668 0.684873 0.69318 0.699745 0.695494 0.689338
          0.701115 0.699622 0.695853 0.710142 0.686696 0.710437
          0.701893 0.705426 0.703912 0.695289 0.693189 0.708611
          0.70818 0.710489 0.689489 0.705266 0.719165 0.711974
          0.704659 0.707599 0.711713 0.700377 0.714179 0.714378
          0.491332 0.681841 0.67735 0.686942 0.688595 0.687716
          0.695305 0.687223 0.699009 0.717658 0.693683 0.697136
          0.702137 0.714675 0.70457 0.706382 0.688013 0.697992
          0.716721 0.69779 0.71756 0.720225 0.720144 0.706057
          0.688574 0.705263 0.697028 0.701335 0.71757 0.705502
          0.702765 0.71141 0.707057 0.531207 0.714929 0.705794
          0.711765 0.710528 0.712715 0.696991 0.694067 0.710318
          0.688803 0.71493 0.694538 0.71055 0.715415 0.694946
          0.704478 0.675863 0.692744 0.693734 0.700478 0.698342
          0.706912 0.707007 0.700151 0.697777 0.712065 0.703177
          0.712054 0.710069 0.709135 0.709883 0.706766 0.704437
          0.491208 0.678448 0.705703 0.688395 0.686518 0.685798
          0.691064 0.676012 0.679353 0.68952 0.695617 0.684349
          0.699564 0.705208 0.713255 0.697754 0.687708 0.690786
          0.708141 0.708737 0.685921 0.695146 0.68733 0.689406
          0.696485 0.704898 0.682042 0.686668 0.68899 0.693457
          0.692907 0.691106 0.692237 0.52255 0.69097 0.701684
          0.704543 0.688988 0.708359 0.702541 0.699778 0.689287
          0.711196 0.706247 0.691037 0.713545 0.683183 0.711877
          0.691732 0.706062 0.69801 0.705211 0.705093 0.694308
          0.697738 0.695984 0.688574 0.693571 0.695169 0.7108
          0.706866 0.700914 0.689652 0.704745 0.702501 0.699628
          0.513327 0.681798 0.698657 0.690957 0.685429 0.691115
          0.6876 0.704893 0.698942 0.698 0.678959 0.68632
          0.697093 0.707998 0.704124 0.701111 0.703913 0.703603
          0.699531 0.707019 0.697386 0.695941 0.698248 0.696902
          0.699529 0.688213 0.686033 0.690683 0.688148 0.697005
          0.683998 0.699858 0.696239 0.504657 0.686475 0.696864
          0.695018 0.684387 0.690495 0.670274 0.696563 0.698996
          0.712014 0.692484 0.697154 0.716713 0.687374 0.704296
          0.70946 0.692727 0.698547 0.699681 0.706731 0.712025
          0.713225 0.705773 0.72227 0.723797 0.71091 0.720344
          0.713217 0.709565 0.70106 0.707485 0.70885 0.724709
          0.497131 0.679791 0.689739 0.687656 0.691643 0.678932
          0.67917 0.700053 0.696789 0.700551 0.697573 0.689707
          0.700914 0.681351 0.693952 0.714125 0.697929 0.699984
          0.697843 0.704061 0.703987 0.709161 0.697127 0.697939
          0.695284 0.686829 0.693263 0.702496 0.690478 0.688563
          0.693682 0.696378 0.71275 0.504247 0.684571 0.68989
          0.682866 0.685297 0.683997 0.705619 0.679548 0.6822
          0.697658 0.715573 0.700568 0.69091 0.708497 0.692667
          0.693187 0.698803 0.695798 0.703167 0.702591 0.708332
          0.687413 0.699311 0.686914 0.681017 0.702469 0.692524
          0.690641 0.691368 0.686945 0.686961 0.688503 0.694066
          0.50907 0.701644 0.676162 0.70469 0.703205 0.701122
          0.689891 0.685339 0.695984 0.692488 0.705492 0.709403
          0.706499 0.714662 0.698987 0.713753 0.689942 0.699972
          0.716165 0.687814 0.699972 0.712099 0.693369 0.702583
          0.716621 0.71923 0.714497 0.711825 0.704111 0.709495
          0.732878 0.712625 0.716086 0.517959 0.69683 0.685418
          0.710143 0.70109 0.714939 0.711715 0.696854 0.709282
          0.688721 0.707322 0.706768 0.701283 0.709886 0.696189
          0.699988 0.709934 0.689373 0.711737 0.690408 0.716026
          0.69355 0.692827 0.700146 0.717583 0.704823 0.691957
          0.706577 0.71629 0.710277 0.720797 0.712001 0.710031
          0.503249 0.679198 0.697005 0.699962 0.689039 0.680681
          0.688742 0.693296 0.693595 0.710255 0.692668 0.688767
          0.706812 0.677605 0.70042 0.695245 0.699962 0.700513
          0.695584 0.691924 0.710864 0.710259 0.684397 0.695471
          0.696542 0.690458 0.712119 0.70629 0.699369 0.708094
          0.690705 0.710873 0.71052 0.518095 0.694794 0.690807
          0.693431 0.706219 0.700957 0.687346 0.716404 0.690791
          0.690399 0.69503 0.711899 0.691097 0.701236 0.699556
          0.69417 0.69844 0.709735 0.698571 0.698896 0.708116
          0.703887 0.703812 0.696547 0.712404 0.705139 0.701582
          0.704822 0.704073 0.710487 0.703857 0.705215 0.705719
          0.503982 0.691407 0.695212 0.679527 0.685417 0.681642
          0.688249 0.707584 0.681807 0.696256 0.710805 0.697637
          0.699427 0.703796 0.70302 0.700509 0.691206 0.707384
          0.689112 0.711826 0.691716 0.685958 0.68 0.681808
          0.701387 0.670386 0.693907 0.69 0.692894 0.687469
          0.683337 0.69508 0.691562 0.500206 0.693102 0.695348
          0.687331 0.713881 0.702591 0.712588 0.696748 0.705405
          0.705307 0.711199 0.700091 0.701521 0.707287 0.701717
          0.700578 0.698743 0.698536 0.690871 0.70539 0.679502
          0.684816 0.681046 0.69075 0.690314 0.70041 0.699168
          0.690186 0.693828 0.686861 0.695528 0.689665 0.697735
          0.526 0.703428 0.699333 0.690706 0.716383 0.696892
          0.711407 0.705875 0.69173 0.704391 0.702609 0.708035
          0.694345 0.694959 0.714897 0.703526 0.698202 0.706304
          0.707071 0.699883 0.703961 0.688262 0.682668 0.690243
          0.696296 0.704509 0.685489 0.687913 0.6853 0.683143
          0.696179 0.71081 0.68729 0.520574 0.710589 0.695312
          0.69738 0.710401 0.695036 0.704492 0.700077 0.707048
          0.696128 0.702202 0.703442 0.698357 0.706596 0.70053
          0.701681 0.700426 0.690928 0.704236 0.694817 0.696364
          0.670055 0.674995 0.701575 0.68314 0.706885 0.676231
          0.709154 0.694015 0.685371 0.710137 0.680488 0.695793
          0.49667 0.668449 0.698944 0.694257 0.684941 0.683077
          0.682194 0.700237 0.685578 0.700119 0.698529 0.695458
          0.719068 0.691939 0.704815 0.699579 0.691847 0.689755
          0.694279 0.698445 0.698499 0.716555 0.722294 0.711113
          0.70838 0.706982 0.718223 0.724632 0.707198 0.706936
          0.71445 0.714619 0.713289 0.493964 0.681522 0.693071
          0.693214 0.676456 0.67931 0.690915 0.709662 0.69804
          0.708174 0.689215 0.69829 0.693225 0.700524 0.69999
          0.699511 0.692956 0.714942 0.688566 0.70261 0.695037
          0.699426 0.698256 0.695751 0.70575 0.688364 0.690858
          0.690648 0.684127 0.697123 0.699317 0.693458 0.682421
          0.503016 0.685817 0.688286 0.684699 0.704291 0.688715
          0.687796 0.702019 0.681797 0.698938 0.702665 0.702489
          0.696591 0.706727 0.693567 0.707121 0.696655 0.694669
          0.712324 0.688481 0.719601 0.725969 0.710813 0.712063
          0.718911 0.729893 0.71126 0.711433 0.710756 0.712481
          0.725312 0.716299 0.703929 0.504019 0.685968 0.705016
          0.694564 0.707743 0.702275 0.686784 0.705703 0.696561
          0.711188 0.689359 0.701001 0.687211 0.689576 0.69282
          0.69196 0.698006 0.71623 0.678976 0.704781 0.691618
          0.695163 0.699237 0.708376 0.69618 0.691443 0.69232
          0.712126 0.689957 0.691312 0.676934 0.699541 0.689788
          0.530378 0.69997 0.713641 0.700129 0.701101 0.691116
          0.707668 0.696336 0.701662 0.71215 0.694577 0.693538
          0.700853 0.700992 0.706695 0.708656 0.690668 0.712651
          0.698473 0.688653 0.693802 0.691938 0.700582 0.699147
          0.698699 0.693532 0.694057 0.699935 0.687123 0.705366
          0.711798 0.691662 0.705264 0.512851 0.682409 0.69981
          0.702554 0.702851 0.714459 0.686197 0.711872 0.692308
          0.709697 0.701235 0.69983 0.708133 0.688639 0.708695
          0.683718 0.705683 0.700247 0.700304 0.707201 0.715153
          0.689116 0.687877 0.693431 0.697224 0.701001 0.707116
          0.700513 0.689251 0.705582 0.690957 0.691312 0.702614
          0.519506 0.694063 0.695966 0.700287 0.690013 0.702232
          0.692351 0.689884 0.682118 0.677579 0.690562 0.698263
          0.706423 0.7111 0.691174 0.682668 0.710958 0.711048
          0.696684 0.685214 0.692472 0.693501 0.707177 0.701333
          0.708942 0.698534 0.679443 0.708242 0.717645 0.713885
          0.693867 0.698274 0.71626 0.510434 0.691648 0.672857
          0.686506 0.691503 0.686438 0.692141 0.682494 0.710531
          0.691225 0.694581 0.69292 0.700512 0.718852 0.695712
          0.708884 0.687102 0.705795 0.70679 0.701625 0.689948
          0.688451 0.685858 0.679731 0.700913 0.702619 0.689724
          0.681046 0.686128 0.695099 0.68755 0.684146 0.690384
          0.520439 0.711913 0.702596 0.709959 0.70619 0.703199
          0.700181 0.696189 0.697228 0.692477 0.705774 0.687638
          0.696549 0.712162 0.700831 0.689689 0.686085 0.710054
          0.70636 0.715413 0.685413 0.681202 0.684479 0.69757
          0.699211 0.694138 0.682103 0.697735 0.692044 0.686414
          0.696672 0.703701 0.691544 0.520156 0.68042 0.712279
          0.712981 0.67911 0.68954 0.700563 0.700506 0.692359
          0.699191 0.695768 0.709263 0.710611 0.693689 0.705736
          0.716528 0.701877 0.687516 0.702077 0.696554 0.692671
          0.702751 0.694823 0.702253 0.71533 0.687125 0.69944
          0.698971 0.699283 0.707189 0.697376 0.705162 0.702602
          0.517119 0.697059 0.71395 0.698309 0.685162 0.707356
          0.700699 0.694644 0.688844 0.706529 0.694346 0.704019
          0.69768 0.694957 0.706171 0.684424 0.714322 0.707762
          0.687948 0.688569 0.697521 0.717674 0.70174 0.721493
          0.721505 0.696056 0.712321 0.706178 0.724021 0.715777
          0.701476 0.716171 0.709107 0.496864 0.681419 0.692507
          0.698383 0.683228 0.683095 0.687281 0.690066 0.703083
          0.695124 0.690549 0.701238 0.720876 0.687612 0.695967
          0.694433 0.701007 0.692894 0.684674 0.704156 0.705642
          0.707256 0.707078 0.722597 0.715277 0.706866 0.717452
          0.710122 0.69507 0.702811 0.71074 0.716074 0.712402
          0.499027 0.683084 0.694536 0.675847 0.70306 0.687177
          0.692766 0.695687 0.693854 0.677933 0.68858 0.699772
          0.701785 0.69761 0.721565 0.699574 0.698148 0.706932
          0.713125 0.695814 0.708172 0.720331 0.711484 0.707443
          0.714574 0.699412 0.71668 0.703961 0.725945 0.725071
          0.705332 0.713892 0.719285 0.516082 0.695541 0.704561
          0.701912 0.707534 0.701608 0.70919 0.697846 0.691048
          0.711309 0.703924 0.700464 0.705218 0.699567 0.703786
          0.691802 0.698386 0.713732 0.709415 0.699705 0.696895
          0.697703 0.697599 0.704142 0.715551 0.718286 0.708646
          0.71855 0.704555 0.712886 0.701719 0.715344 0.7089
          0.519069 0.675792 0.699724 0.687508 0.708611 0.680877
          0.70719 0.702182 0.707063 0.681751 0.685435 0.71849
          0.707361 0.699418 0.710176 0.705011 0.701911 0.709502
          0.701986 0.688248 0.708295 0.718167 0.711436 0.698731
          0.703805 0.706845 0.715338 0.715057 0.711627 0.705932
          0.687659 0.701447 0.695259 0.517463 0.682829 0.676142
          0.679961 0.701466 0.680612 0.696492 0.701216 0.692296
          0.713427 0.697137 0.70145 0.682398 0.709953 0.702124
          0.711651 0.680232 0.712084 0.69711 0.704291 0.715433
          0.715946 0.709621 0.700313 0.715836 0.708006 0.689704
          0.696709 0.708406 0.704851 0.723258 0.696739 0.710105
          0.52235 0.689251 0.696169 0.699171 0.70184 0.699094
          0.688773 0.705717 0.693484 0.702678 0.695918 0.69947
          0.682495 0.712585 0.696638 0.701427 0.695471 0.703766
          0.700267 0.698941 0.716001 0.714271 0.706756 0.701154
          0.723469 0.699197 0.711826 0.713269 0.705685 0.711461
          0.696904 0.71475 0.710019 0.501905 0.67013 0.680303
          0.70216 0.682702 0.702769 0.692598 0.68156 0.692757
          0.708221 0.699527 0.706542 0.695839 0.711564 0.700597
          0.69439 0.714749 0.700814 0.708253 0.69739 0.718715
          0.715466 0.711311 0.711327 0.71783 0.715445 0.712316
          0.709895 0.708311 0.706069 0.707332 0.706068 0.704669
          0.510355 0.717589 0.681698 0.705082 0.698273 0.68914
          0.707985 0.69221 0.674947 0.702764 0.699119 0.711282
          0.702682 0.710589 0.690844 0.72155 0.693954 0.694013
          0.697066 0.694643 0.696842 0.697517 0.716578 0.703656
          0.722609 0.719316 0.688856 0.701447 0.702361 0.697378
          0.71477 0.718167 0.718243 0.51172 0.670256 0.706089
          0.703346 0.692582 0.688612 0.694416 0.693215 0.706621
          0.703162 0.69872 0.693218 0.701273 0.683555 0.703532
          0.706261 0.704083 0.697172 0.690089 0.703273 0.694676
          0.69204 0.710684 0.698897 0.704347 0.692771 0.711226
          0.701756 0.701356 0.715035 0.695082 0.698873 0.703577
          0.524333 0.68194 0.707914 0.69254 0.696358 0.708032
          0.692459 0.702555 0.6846 0.698476 0.694648 0.704572
          0.697081 0.702481 0.709407 0.691538 0.6928 0.693996
          0.698178 0.708794 0.69924 0.701945 0.69827 0.712002
          0.694541 0.685597 0.686955 0.695135 0.693883 0.694762
          0.695499 0.695112 0.685478 0.513388 0.717384 0.710753
          0.698106 0.696305 0.695986 0.702215 0.695979 0.685532
          0.694959 0.700499 0.71106 0.701125 0.695984 0.704851
          0.692958 0.702684 0.687996 0.71503 0.702033 0.69502
          0.70528 0.692214 0.683775 0.689896 0.707704 0.694294
          0.701111 0.689233 0.695169 0.69087 0.697042 0.696728
          0.50133 0.713047 0.685412 0.705269 0.706176 0.69048
          0.704027 0.709424 0.699631 0.694533 0.702075 0.701808
          0.706899 0.707144 0.68464 0.706521 0.707156 0.69513
          0.706955 0.696895 0.696814 0.689098 0.713967 0.681743
          0.693719 0.709241 0.687368 0.701918 0.708956 0.701823