<?xml version="1.0"?>
<VTKFile type="PolyData" version="0.1" byte_order="LittleEndian" header_type="UInt32" compressor="vtkZLibDataCompressor">
  <PolyData>
    <Piece NumberOfPoints="8160" NumberOfVerts="0" NumberOfLines="0" NumberOfStrips="0" NumberOfPolys="0">
      <PointData Scalars="Calcium Concentration">
        <DataArray type="Float32" Name="Calcium Concentration" format="ascii" RangeMin="0.16775000095367432" RangeMax="0.7374340295791626">
          0.185266 0.674964 0.686685 0.705647 0.716317 0.70187
          0.693601 0.696427 0.687404 0.701879 0.691852 0.708591
          0.695478 0.698229 0.701317 0.702641 0.692607 0.712755
          0.696028 0.686853 0.706544 0.684603 0.695952 0.680184
          0.681935 0.69545 0.693844 0.701748 0.693638 0.683389
          0.706793 0.699774 0.693568 0.693461 0.190762 0.69441
          0.703212 0.707526 0.7099 0.702606 0.691182 0.687723
          0.709716 0.701756 0.699866 0.700145 0.70628 0.707498
          0.693551 0.706279 0.69437 0.715334 0.697746 0.693247
          0.687517 0.690269 0.688375 0.680369 0.68366 0.70023
          0.687251 0.686038 0.68993 0.693664 0.710084 0.691117
          0.685918 0.695327 0.181173 0.664583 0.690088 0.678973
          0.683209 0.687509 0.688538 0.693564 0.68947 0.707537
          0.68588 0.696951 0.702056 0.69988 0.698127 0.706895
          0.704427 0.718426 0.711661 0.697003 0.710729 0.713135
          0.710479 0.719708 0.698622 0.706397 0.703712 0.720005
          0.706159 0.713517 0.704566 0.710668 0.708506 0.717027
          0.18262 0.682959 0.691262 0.696111 0.704104 0.699471
          0.708725 0.690657 0.714266 0.710511 0.698377 0.697639
          0.703749 0.708657 0.688019 0.701737 0.691724 0.707177
          0.702229 0.696735 0.703364 0.697325 0.691551 0.68601
          0.694968 0.699328 0.698919 0.705525 0.714277 0.699331
          0.700406 0.697257 0.695952 0.691132 0.178001 0.663568
          0.683022 0.686843 0.682455 0.697653 0.685277 0.684258
          0.707414 0.697508 0.697843 0.690948 0.695928 0.7041
          0.692211 0.703081 0.699257 0.706351 0.710024 0.701012
          0.704922 0.687708 0.702934 0.677926 0.689762 0.685604
          0.691997 0.689157 0.694702 0.694047 0.686709 0.699716
          0.702139 0.689585 0.189967 0.68385 0.699497 0.702786
          0.705296 0.708451 0.695963 0.707464 0.677371 0.703112
          0.708056 0.703342 0.693757 0.697479 0.695092 0.69817
          0.693181 0.689007 0.699155 0.704099 0.693894 0.718955
          0.699519 0.704066 0.707692 0.726375 0.713682 0.697864
          0.697817 0.701824 0.717135 0.69784 0.698445 0.703806
          0.181243 0.66449 0.690794 0.687389 0.684446 0.696297
          0.674489 0.681438 0.6921 0.723819 0.692024 0.697052
          0.705371 0.696921 0.702549 0.688049 0.695735 0.717681
          0.697168 0.697269 0.688927 0.710661 0.696446 0.704171
          0.704354 0.717335 0.717979 0.714314 0.721628 0.71313
          0.70644 0.719064 0.706029 0.705457 0.181739 0.681503
          0.696039 0.701538 0.686641 0.710115 0.68834 0.682317
          0.68697 0.704414 0.71886 0.697256 0.687242 0.708197
          0.6905 0.718551 0.705682 0.693394 0.694161 0.689393
          0.690976 0.698491 0.689092 0.682352 0.691697 0.690599
          0.700439 0.682052 0.680584 0.692066 0.689484 0.688448
          0.674007 0.699723 0.174404 0.671792 0.682124 0.676702
          0.675759 0.684274 0.689537 0.698985 0.696849 0.704837
          0.7013 0.690705 0.692019 0.707592 0.687281 0.705882
          0.703471 0.698126 0.710326 0.696186 0.701216 0.71608
          0.701157 0.707364 0.692343 0.718812 0.700382 0.712435
          0.706609 0.708985 0.715598 0.717307 0.711293 0.716832
          0.183194 0.682424 0.69008 0.69948 0.707526 0.715362
          0.696703 0.68667 0.709743 0.697897 0.703093 0.694388
          0.692329 0.699043 0.699766 0.702932 0.697724 0.699615
          0.718913 0.68698 0.707683 0.713681 0.68983 0.708334
          0.705791 0.705313 0.701996 0.70816 0.708603 0.69755
          0.714126 0.697815 0.714974 0.714045 0.177542 0.68681
          0.693017 0.713065 0.6845 0.715476 0.69224 0.700959
          0.704713 0.704454 0.701618 0.694968 0.699951 0.69738
          0.686533 0.703475 0.700598 0.689321 0.698576 0.713227
          0.707195 0.708238 0.709601 0.711838 0.713405 0.694465
          0.695837 0.700334 0.717633 0.708881 0.717534 0.71019
          0.711667 0.707627 0.169088 0.669235 0.68207 0.691794
          0.683633 0.687692 0.685979 0.700437 0.701369 0.702874
          0.703929 0.705283 0.694072 0.692685 0.699728 0.709946
          0.700885 0.698617 0.70673 0.688239 0.688329 0.685705
          0.709857 0.682985 0.687352 0.701208 0.693255 0.691831
          0.680217 0.693158 0.6969 0.696446 0.696529 0.693706
          0.183587 0.685623 0.703662 0.693834 0.688945 0.695244
          0.707737 0.696844 0.711563 0.695936 0.699322 0.697162
          0.701742 0.693321 0.692899 0.699422 0.698117 0.697662
          0.708686 0.694224 0.689465 0.687614 0.697921 0.691178
          0.688239 0.69891 0.694469 0.689549 0.700038 0.694582
          0.694464 0.686238 0.702601 0.693057 0.184872 0.688372
          0.687918 0.706804 0.709716 0.693608 0.698789 0.686663
          0.702058 0.714755 0.704292 0.687775 0.690257 0.713188
          0.706164 0.694801 0.698076 0.694895 0.712352 0.701177
          0.686086 0.692287 0.676027 0.681942 0.676132 0.691228
          0.687513 0.692505 0.694414 0.691064 0.700935 0.69013
          0.683626 0.704233 0.176775 0.651079 0.687448 0.699826
          0.693548 0.68559 0.688941 0.697085 0.684748 0.702595
          0.695151 0.704356 0.694975 0.700715 0.684841 0.691681
          0.707463 0.693693 0.703031 0.696566 0.708332 0.713193
          0.718184 0.716188 0.703718 0.721463 0.70398 0.698917
          0.71929 0.715828 0.707671 0.718527 0.712176 0.701885
          0.177002 0.696979 0.698252 0.689754 0.721108 0.706414
          0.692094 0.692202 0.71366 0.706781 0.69476 0.702269
          0.708927 0.699282 0.690206 0.703332 0.700797 0.697771
          0.693777 0.699966 0.68927 0.685008 0.698462 0.681983
          0.693989 0.701165 0.697182 0.688307 0.686887 0.691301
          0.691637 0.697496 0.685595 0.694372 0.169393 0.664843
          0.69761 0.687055 0.693679 0.689563 0.693959 0.684279
          0.696883 0.684005 0.702709 0.705898 0.704872 0.700618
          0.698267 0.701586 0.693942 0.719079 0.706316 0.700284
          0.695178 0.699009 0.705387 0.687293 0.689499 0.690949
          0.687963 0.705009 0.702575 0.708009 0.712068 0.704649
          0.682022 0.700738 0.175086 0.681747 0.678105 0.672131
          0.691387 0.701769 0.686058 0.706084 0.688697 0.712631
          0.700027 0.706144 0.702319 0.696026 0.701215 0.692743
          0.696962 0.699753 0.696112 0.698727 0.690325 0.711155
          0.712054 0.705078 0.708697 0.73203 0.702125 0.698131
          0.709519 0.709933 0.710192 0.696121 0.717927 0.722663
          0.17491 0.664075 0.691345 0.689777 0.69393 0.686221
          0.693792 0.694851 0.706863 0.705003 0.702196 0.687478
          0.697177 0.700077 0.694342 0.698736 0.707682 0.711449
          0.697912 0.707221 0.690112 0.693894 0.69403 0.68859
          0.69222 0.702093 0.686629 0.680264 0.681337 0.697636
          0.704619 0.683884 0.7024 0.703686 0.186771 0.680973
          0.696064 0.709849 0.6912 0.698068 0.699768 0.691987
          0.699801 0.710719 0.693444 0.702874 0.697235 0.686548
          0.691969 0.696708 0.701822 0.702807 0.711662 0.69384
          0.691293 0.703674 0.682584 0.683915 0.694904 0.687447
          0.686677 0.696172 0.700625 0.688962 0.680624 0.691533
          0.684931 0.690577 0.178237 0.684571 0.68479 0.690684
          0.695463 0.698982 0.696656 0.712452 0.689077 0.688162
          0.709999 0.69315 0.699661 0.702962 0.684539 0.688143
          0.702687 0.705238 0.706547 0.694748 0.692671 0.699615
          0.675382 0.679378 0.688154 0.690801 0.694087 0.69027
          0.700803 0.69487 0.692724 0.694878 0.697999 0.699683
          0.183636 0.675892 0.695895 0.691991 0.700986 0.693796
          0.707912 0.704384 0.684472 0.708443 0.694063 0.687236
          0.71297 0.695929 0.685663 0.694278 0.693835 0.711796
          0.696743 0.703028 0.694252 0.705782 0.710575 0.707273
          0.707572 0.713204 0.715243 0.696051 0.719308 0.710137
          0.724536 0.704082 0.699571 0.706894 0.182075 0.70109
          0.681933 0.709575 0.704814 0.701164 0.706734 0.710702
          0.69489 0.699 0.702361 0.694034 0.703856 0.693017
          0.687337 0.694495 0.708608 0.703851 0.700523 0.706022
          0.709312 0.715212 0.701553 0.712373 0.714449 0.710993
          0.702423 0.704194 0.699957 0.697982 0.715806 0.716673
          0.726616 0.713393 0.179972 0.697194 0.709878 0.685101
          0.702394 0.697029 0.703569 0.696579 0.697519 0.700554
          0.695841 0.697799 0.698665 0.711473 0.694116 0.700093
          0.70636 0.715599 0.695104 0.686463 0.709986 0.699878
          0.712157 0.712773 0.711215 0.713982 0.714685 0.714054
          0.719287 0.709455 0.705537 0.705902 0.705529 0.712949
          0.174736 0.676881 0.697979 0.69826 0.705235 0.685697
          0.712145 0.703967 0.702201 0.703695 0.699979 0.703225
          0.686031 0.705598 0.696502 0.700185 0.703182 0.686578
          0.696877 0.696498 0.700202 0.680659 0.669741 0.701394
          0.680179 0.698724 0.69733 0.69062 0.695394 0.702372
          0.686502 0.681812 0.687307 0.694599 0.185625 0.670527
          0.70751 0.710281 0.704766 0.710774 0.705928 0.700068
          0.689848 0.702945 0.690821 0.704073 0.70388 0.707139
          0.702279 0.705375 0.695432 0.702597 0.700221 0.706721
          0.706342 0.688762 0.681072 0.681177 0.681416 0.687295
          0.703065 0.695194 0.698006 0.703378 0.692424 0.68783
          0.695132 0.693267 0.188892 0.690556 0.682673 0.701965
          0.708957 0.70695 0.708036 0.69606 0.691589 0.689833
          0.721075 0.688592 0.698495 0.69803 0.699086 0.688204
          0.710573 0.724395 0.684767 0.69142 0.707137 0.699248
          0.675922 0.704426 0.691429 0.696408 0.685524 0.694893
          0.676666 0.686584 0.686312 0.681047 0.69429 0.687767
          0.189639 0.677787 0.693531 0.688506 0.682929 0.691214
          0.694076 0.687725 0.687854 0.707226 0.697189 0.67831
          0.689599 0.682246 0.684654 0.701931 0.697315 0.688411
          0.705131 0.690126 0.7069 0.700171 0.688317 0.689523
          0.687816 0.701 0.690796 0.684404 0.684864 0.685844
          0.705505 0.69483 0.678966 0.701444 0.178628 0.682258
          0.692694 0.693074 0.696541 0.698296 0.696703 0.70998
          0.693129 0.727693 0.686414 0.676828 0.712033 0.699934
          0.707337 0.696279 0.695742 0.698483 0.688918 0.707186
          0.698317 0.688585 0.674647 0.68252 0.69694 0.686408
          0.686111 0.692523 0.719035 0.700345 0.688505 0.700152
          0.69365 0.685331 0.174603 0.675896 0.692365 0.690618
          0.701542 0.694832 0.70157 0.691835 0.698166 0.709736
          0.704422 0.688692 0.700599 0.700573 0.684517 0.722756
          0.694047 0.693116 0.711498 0.688143 0.701528 0.687317
          0.695383 0.694197 0.687445 0.696822 0.684935 0.699666
          0.695856 0.698973 0.694581 0.680886 0.676374 0.697163
          0.176492 0.667166 0.691675 0.684561 0.683258 0.694568
          0.681282 0.702399 0.688005 0.700228 0.704282 0.705334
          0.706943 0.702756 0.699076 0.700026 0.694581 0.691896
          0.692439 0.696658 0.695706 0.71861 0.71166 0.716572
          0.714103 0.720817 0.722975 0.691253 0.708623 0.708514
          0.691914 0.702929 0.702684 0.708515 0.179895 0.677292
          0.701527 0.692803 0.691816 0.698113 0.707279 0.682784
          0.686626 0.686748 0.694293 0.686662 0.690222 0.706798
          0.694434 0.708611 0.698134 0.699184 0.703266 0.691014
          0.70107 0.701636 0.729318 0.704645 0.697186 0.717319
          0.690242 0.709147 0.715189 0.708173 0.709931 0.712525
          0.709109 0.715512 0.174991 0.678674 0.68951 0.69923
          0.708345 0.703466 0.709985 0.692765 0.689527 0.715051
          0.688991 0.684218 0.713789 0.694536 0.685945 0.696783
          0.691618 0.703994 0.711456 0.692919 0.705411 0.704383
          0.701908 0.710449 0.705014 0.704584 0.707358 0.71002
          0.702541 0.713219 0.71928 0.713349 0.713237 0.712288
          0.177596 0.66748 0.685794 0.707186 0.680144 0.686969
          0.689494 0.692905 0.687282 0.687393 0.716757 0.706134
          0.692175 0.701027 0.696371 0.711611 0.706508 0.699644
          0.704775 0.690799 0.706129 0.694391 0.690119 0.714642
          0.707597 0.680303 0.69067 0.697563 0.684656 0.692771
          0.696936 0.687695 0.70121 0.701841 0.183611 0.673939
          0.688872 0.687673 0.678553 0.688185 0.682699 0.687279
          0.704845 0.704189 0.702362 0.711359 0.70142 0.704132
          0.698259 0.702964 0.708459 0.69892 0.701418 0.721609
          0.701311 0.701632 0.692357 0.681827 0.682155 0.683983
          0.698822 0.700522 0.69148 0.707516 0.686399 0.70004
          0.68674 0.690331 0.179697 0.65712 0.682775 0.700381
          0.701231 0.696831 0.680979 0.689227 0.698707 0.694777
          0.684975 0.688186 0.696976 0.701542 0.71286 0.708919
          0.702959 0.710231 0.70369 0.709137 0.691742 0.70572
          0.695591 0.692406 0.710422 0.701037 0.704952 0.704604
          0.704895 0.697592 0.695662 0.684569 0.685112 0.687848
          0.174925 0.677506 0.684909 0.703452 0.696453 0.705511
          0.701883 0.69343 0.706089 0.701778 0.690874 0.703585
          0.691985 0.692971 0.691778 0.703221 0.689956 0.700951
          0.694109 0.710718 0.69661 0.688812 0.698366 0.682973
          0.686999 0.69466 0.685587 0.686611 0.697206 0.695532
          0.684402 0.676847 0.690982 0.679793 0.179828 0.655947
          0.684452 0.689028 0.702316 0.688799 0.682947 0.690114
          0.700239 0.693845 0.701271 0.692587 0.702168 0.696486
          0.685347 0.703629 0.690471 0.696617 0.693286 0.700657
          0.693103 0.700306 0.709624 0.705994 0.705914 0.710154
          0.715649 0.713277 0.71363 0.714714 0.693891 0.719311
          0.715852 0.711666 0.186458 0.692403 0.685433 0.695966
          0.700784 0.692351 0.694165 0.692035 0.697651 0.708309
          0.688239 0.708708 0.698492 0.689564 0.700512 0.703273
          0.699377 0.702336 0.717861 0.696109 0.704005 0.698378
          0.693856 0.701457 0.708054 0.704504 0.707312 0.691999
          0.681841 0.698448 0.698777 0.681893 0.690826 0.691298
          0.179726 0.688481 0.696205 0.698517 0.686134 0.699075
          0.692063 0.699209 0.706666 0.710352 0.702492 0.693524
          0.718955 0.704616 0.693839 0.699299 0.698631 0.705748
          0.694568 0.691177 0.706703 0.70223 0.691213 0.688241
          0.692491 0.685396 0.68715 0.687183 0.69877 0.695633
          0.714111 0.697951 0.674855 0.695559 0.180048 0.677936
          0.698242 0.707448 0.701373 0.698038 0.705861 0.700021
          0.709902 0.698019 0.697001 0.713614 0.699151 0.694944
          0.69475 0.696973 0.702755 0.706039 0.686946 0.70951
          0.696162 0.697137 0.693822 0.697591 0.693825 0.694893
          0.700036 0.694836 0.700601 0.699885 0.677432 0.699322
          0.687092 0.693164 0.174719 0.688201 0.713839 0.691854
          0.680566 0.702896 0.693428 0.714972 0.693506 0.701041
          0.706829 0.686908 0.701667 0.692923 0.694884 0.713626
          0.699298 0.702468 0.70192 0.705193 0.69656 0.701989
          0.705829 0.698697 0.708567 0.723571 0.710769 0.710005
          0.705398 0.707642 0.709715 0.709385 0.701184 0.712925
          0.178069 0.677757 0.692252 0.700291 0.693403 0.697077
          0.708509 0.688164 0.696432 0.704371 0.718044 0.695701
          0.695228 0.695819 0.703743 0.687136 0.698291 0.697868
          0.70444 0.696859 0.68558 0.689476 0.701038 0.693341
          0.682192 0.696255 0.690014 0.684179 0.687235 0.689112
          0.690116 0.698586 0.677583 0.687785 0.168018 0.684654
          0.69835 0.691701 0.700415 0.70464 0.698672 0.700942
          0.694567 0.704902 0.697094 0.689275 0.707326 0.697367
          0.694613 0.704159 0.703303 0.699833 0.706593 0.688462
          0.701058 0.697732 0.702986 0.708824 0.709336 0.712251
          0.710044 0.693288 0.711205 0.7118 0.69149 0.706749
          0.712695 0.700963 0.176572 0.652462 0.688192 0.693399
          0.69441 0.690956 0.689747 0.707383 0.695792 0.697003
          0.687641 0.696889 0.681682 0.708055 0.697066 0.70057
          0.697963 0.716158 0.705813 0.699249 0.701842 0.713254
          0.712194 0.714367 0.716131 0.708058 0.713455 0.728098
          0.72136 0.713088 0.695991 0.728646 0.711755 0.708126
          0.182033 0.662207 0.679836 0.681757 0.685211 0.699306
          0.704688 0.69484 0.680549 0.707738 0.721971 0.698817
          0.688521 0.698912 0.697728 0.703744 0.698536 0.712606
          0.688833 0.70244 0.703525 0.706493 0.718457 0.704426
          0.708114 0.718444 0.708851 0.707739 0.702445 0.72358
          0.707567 0.713011 0.717751 0.710729 0.17648 0.669673
          0.682687 0.689127 0.689524 0.679628 0.69257 0.681254
          0.702969 0.718346 0.693823 0.697136 0.702469 0.700165
          0.700876 0.702928 0.701769 0.712331 0.702264 0.689343
          0.712643 0.709933 0.715502 0.703136 0.692159 0.696542
          0.698895 0.709176 0.705812 0.715524 0.699313 0.715932
          0.716858 0.7126 0.191783 0.694668 0.701103 0.687672
          0.693585 0.703972 0.698572 0.691427 0.696857 0.701381
          0.699215 0.672395 0.691073 0.707275 0.681697 0.712065
          0.707322 0.701474 0.711347 0.70521 0.706151 0.701902
          0.71707 0.708276 0.689461 0.706974 0.706729 0.714823
          0.706949 0.710205 0.720517 0.712393 0.697619 0.717969
          0.168087 0.669657 0.685467 0.695329 0.68925 0.691902
          0.698516 0.690138 0.683709 0.686152 0.707292 0.704549
          0.706987 0.702847 0.692743 0.704496 0.693983 0.697087
          0.699775 0.69749 0.694572 0.689508 0.679805 0.698169
          0.700578 0.688738 0.694615 0.696557 0.685775 0.699001
          0.692018 0.695491 0.694714 0.699819 0.183577 0.673349
          0.696217 0.699134 0.688004 0.695709 0.698695 0.70163
          0.699417 0.71319 0.695176 0.699797 0.708478 0.679242
          0.713222 0.700447 0.699176 0.704881 0.692002 0.708574
          0.697719 0.699102 0.693613 0.69494 0.690685 0.692637
          0.704591 0.712289 0.705463 0.679178 0.689207 0.693949
          0.689932 0.688578 0.187074 0.670789 0.698601 0.685969
          0.678665 0.682668 0.678078 0.701274 0.707859 0.699106
          0.684615 0.693982 0.69094 0.702652 0.716672 0.702709
          0.689014 0.695354 0.697706 0.70477 0.700058 0.685368
          0.692735 0.688099 0.698098 0.695585 0.689793 0.695424
          0.702542 0.711664 0.682548 0.692311 0.703672 0.706454
          0.179816 0.655286 0.686309 0.694359 0.69286 0.681024
          0.695697 0.702037 0.694298 0.679746 0.694444 0.704426
          0.702376 0.698646 0.703419 0.714019 0.682038 0.688799
          0.713475 0.700922 0.688611 0.725752 0.708566 0.722808
          0.722184 0.721622 0.7137 0.70412 0.702834 0.6999
          0.69785 0.708428 0.717339 0.690113 0.18182 0.655605
          0.68742 0.699216 0.691978 0.677094 0.673387 0.693857
          0.70493 0.691358 0.703036 0.705902 0.700155 0.710127
          0.702139 0.700105 0.698301 0.692774 0.699952 0.702171
          0.697919 0.701416 0.697971 0.697185 0.710924 0.68014
          0.70044 0.696587 0.689848 0.686215 0.691603 0.707299
          0.698229 0.699886 0.188616 0.676601 0.698908 0.683614
          0.683013 0.694622 0.703317 0.692212 0.679037 0.700296
          0.723448 0.686612 0.707901 0.696605 0.689909 0.703632
          0.696845 0.700883 0.707566 0.706225 0.701424 0.689545
          0.697286 0.707054 0.680539 0.690702 0.702288 0.686928
          0.678936 0.696835 0.68469 0.692403 0.700666 0.68867
          0.182533 0.703978 0.708722 0.727138 0.687183 0.694093
          0.697948 0.705728 0.700024 0.711198 0.691165 0.691282
          0.700446 0.702759 0.680906 0.692918 0.696576 0.710766
          0.706814 0.692787 0.701566 0.696049 0.702307 0.704487
          0.718312 0.71238 0.713074 0.711418 0.699372 0.711018
          0.722715 0.710682 0.709332 0.71874 0.188719 0.688451
          0.698153 0.703899 0.697352 0.698964 0.696034 0.692741
          0.695583 0.707449 0.690856 0.688772 0.701397 0.689166
          0.680321 0.693922 0.710842 0.704555 0.704967 0.703699
          0.700624 0.701879 0.705655 0.701133 0.711658 0.695534
          0.692946 0.700672 0.706774 0.703421 0.721582 0.709539
          0.715529 0.702413 0.178568 0.64948 0.693566 0.693403
          0.684594 0.677647 0.684301 0.688373 0.699066 0.697646
          0.698786 0.69084 0.71087 0.694061 0.704878 0.707166
          0.690906 0.699279 0.702986 0.696722 0.696397 0.694415
          0.692326 0.697498 0.6995 0.704704 0.694398 0.705482
          0.699153 0.712537 0.6856 0.718119 0.696672 0.697084
          0.190407 0.692919 0.71246 0.696508 0.705961 0.70167
          0.707577 0.701655 0.70227 0.679159 0.701236 0.708278
          0.705508 0.703586 0.698179 0.698179 0.700692 0.70075
          0.698137 0.709135 0.700224 0.711827 0.700562 0.703639
          0.707169 0.701833 0.693215 0.702119 0.710348 0.70359
          0.705039 0.702056 0.71321 0.705723 0.183345 0.663011
          0.679117 0.68731 0.684612 0.682841 0.692929 0.691923
          0.708683 0.715284 0.705947 0.701043 0.697944 0.702368
          0.707756 0.688543 0.709205 0.702293 0.707964 0.697246
          0.698329 0.70439 0.682623 0.681912 0.699168 0.685044
          0.688401 0.691 0.689975 0.690559 0.691224 0.687713
          0.690772 0.698015 0.177993 0.679729 0.698388 0.697941
          0.704677 0.699875 0.693166 0.687274 0.692972 0.689783
          0.721458 0.701423 0.69214 0.696089 0.709109 0.695921
          0.714182 0.695417 0.689592 0.698407 0.690842 0.696898
          0.69211 0.690303 0.6985 0.701852 0.69825 0.690959
          0.686847 0.695736 0.678542 0.684408 0.695848 0.681052
          0.187657 0.694897 0.698155 0.690358 0.70001 0.698618
          0.696818 0.69966 0.700637 0.703867 0.700455 0.706098
          0.694074 0.698696 0.695586 0.688355 0.695874 0.695433
          0.709473 0.694453 0.698842 0.68971 0.685851 0.701899
          0.692247 0.690994 0.694735 0.696812 0.678233 0.685852
          0.684323 0.685393 0.691792 0.696037 0.191811 0.699142
          0.704478 0.691844 0.706768 0.714313 0.683656 0.711737
          0.70039 0.691742 0.716849 0.696457 0.703495 0.714294
          0.69396 0.717897 0.704044 0.699988 0.699835 0.707521
          0.688412 0.689486 0.684131 0.680598 0.682472 0.701281
          0.673797 0.685706 0.693417 0.685312 0.700963 0.679409
          0.68947 0.70553 0.17354 0.66457 0.687218 0.702831
          0.681524 0.685047 0.677533 0.705291 0.697635 0.682565
          0.693853 0.720602 0.70708 0.696021 0.703728 0.699297
          0.694365 0.692641 0.700335 0.70485 0.69225 0.715284
          0.719068 0.707925 0.715547 0.70211 0.711321 0.713905
          0.709088 0.708368 0.700765 0.727394 0.715833 0.701291
          0.182908 0.66765 0.684273 0.687998 0.683454 0.680468
          0.680739 0.714001 0.702441 0.69126 0.693023 0.712124
          0.694065 0.710581 0.702419 0.699342 0.691361 0.693601
          0.700707 0.70112 0.701846 0.693383 0.686091 0.675859
          0.692244 0.68903 0.695637 0.696609 0.693053 0.691283
          0.694985 0.683481 0.695665 0.691799 0.180036 0.675314
          0.693809 0.694616 0.700158 0.684418 0.689229 0.692904
          0.689991 0.695922 0.702893 0.70085 0.695849 0.69293
          0.699465 0.693659 0.691196 0.695517 0.703586 0.688876
          0.712083 0.709619 0.717362 0.708196 0.726358 0.710032
          0.703781 0.697307 0.701048 0.710365 0.729989 0.719115
          0.698482 0.719747 0.18362 0.6573 0.690201 0.69845
          0.705397 0.705756 0.694397 0.71256 0.712943 0.700166
          0.704042 0.704006 0.697751 0.70555 0.705239 0.687847
          0.688812 0.708583 0.697242 0.696422 0.691419 0.695271
          0.703941 0.714011 0.706002 0.696426 0.694194 0.699865
          0.692429 0.703813 0.680844 0.681603 0.688295 0.678904
          0.192124 0.676841 0.700539 0.700075 0.696185 0.698896
          0.699514 0.69935 0.707833 0.69702 0.702679 0.701793
          0.711184 0.708079 0.700152 0.711844 0.689488 0.690906
          0.705765 0.688314 0.705824 0.688776 0.707746 0.69216
          0.695091 0.684642 0.703124 0.679948 0.681996 0.695811
          0.699323 0.688102 0.705586 0.689113 0.192042 0.666114
          0.701936 0.698959 0.687608 0.696744 0.692493 0.709098
          0.702578 0.715277 0.693599 0.708407 0.692225 0.693432
          0.708641 0.695815 0.708747 0.710965 0.698805 0.715412
          0.710899 0.690301 0.690284 0.69811 0.698978 0.692338
          0.712855 0.696606 0.689734 0.703849 0.678772 0.702746
          0.692754 0.685123 0.18314 0.683899 0.710865 0.707351
          0.687457 0.69318 0.70018 0.695819 0.684402 0.696977
          0.691779 0.679464 0.716291 0.706493 0.685548 0.696689
          0.706672 0.708842 0.699471 0.694757 0.707054 0.696427
          0.694996 0.709163 0.705252 0.699665 0.706841 0.701465
          0.715458 0.708871 0.701473 0.684896 0.719592 0.725731
          0.186881 0.679021 0.68237 0.67691 0.686568 0.694076
          0.691338 0.684758 0.698741 0.694108 0.715515 0.707004
          0.702516 0.709616 0.689984 0.707734 0.70201 0.703852
          0.702343 0.689895 0.69892 0.693914 0.682118 0.68641
          0.682906 0.691878 0.692552 0.683899 0.694527 0.69225
          0.680872 0.692921 0.693781 0.690156 0.195401 0.699956
          0.695886 0.704684 0.694543 0.69398 0.705972 0.695229
          0.711281 0.697673 0.709631 0.676303 0.725465 0.713168
          0.689715 0.700965 0.708269 0.718371 0.700405 0.697479
          0.692637 0.692448 0.678225 0.69374 0.696577 0.690352
          0.678057 0.689798 0.683994 0.688085 0.69584 0.690422
          0.703668 0.707512 0.187194 0.662231 0.704051 0.698908
          0.687418 0.692153 0.688034 0.698337 0.708513 0.685346
          0.704834 0.704755 0.700993 0.707447 0.695694 0.719649
          0.685749 0.684557 0.709616 0.707956 0.697852 0.697937
          0.713577 0.699181 0.711248 0.689739 0.702204 0.70727
          0.700145 0.706939 0.688787 0.701213 0.699318 0.692696
          0.181337 0.68752 0.700644 0.695738 0.689601 0.704246
          0.706757 0.71222 0.702588 0.712008 0.691151 0.703636
          0.687911 0.703397 0.713278 0.705971 0.698288 0.700923
          0.707209 0.687328 0.705574 0.711804 0.705881 0.716246
          0.711338 0.705803 0.700694 0.696548 0.708283 0.705595
          0.69449 0.716095 0.71572 0.708456 0.16775 0.65471
          0.688494 0.694365 0.697601 0.695486 0.67665 0.682721
          0.693989 0.709705 0.704877 0.70513 0.69016 0.698109
          0.703163 0.695893 0.713501 0.684788 0.706425 0.692068
          0.71033 0.708658 0.70898 0.711202 0.71132 0.706907
          0.69546 0.702804 0.695797 0.709393 0.705778 0.714798
          0.71344 0.709293 0.177796 0.660161 0.695486 0.692774
          0.69038 0.703292 0.700185 0.700121 0.686569 0.684359
          0.690172 0.69719 0.701808 0.702073 0.702416 0.696619
          0.694104 0.692664 0.70301 0.695829 0.71069 0.714773
          0.725327 0.710196 0.714953 0.715181 0.700722 0.707483
          0.700816 0.718718 0.699988 0.701285 0.707666 0.706053
          0.177754 0.681474 0.696254 0.693758 0.714525 0.700237
          0.697642 0.692811 0.694374 0.698005 0.696147 0.692532
          0.698178 0.69336 0.703011 0.693178 0.689762 0.702373
          0.699085 0.696309 0.703062 0.706649 0.697778 0.694793
          0.701503 0.711054 0.717787 0.730692 0.700396 0.704266
          0.703601 0.716075 0.71561 0.711985 0.187268 0.670009
          0.688266 0.715404 0.696055 0.696315 0.697404 0.695112
          0.705815 0.703419 0.692055 0.705592 0.701471 0.701908
          0.691089 0.689121 0.68915 0.701282 0.702029 0.700725
          0.71916 0.702807 0.69588 0.704126 0.707639 0.713986
          0.701764 0.713096 0.708011 0.712083 0.696635 0.698087
          0.706584 0.708429 0.191999 0.669357 0.685122 0.6802
          0.683669 0.69432 0.691521 0.687502 0.700944 0.696407
          0.70724 0.684618 0.714137 0.699783 0.678883 0.707555
          0.695812 0.698246 0.706016 0.701755 0.705029 0.701504
          0.706729 0.705658 0.699262 0.701264 0.698694 0.705167
          0.700774 0.685276 0.719093 0.700532 0.698372 0.71259
          0.180215 0.684996 0.704178 0.701965 0.694453 0.701714
          0.694872 0.71851 0.69154 0.690903 0.693171 0.719272
          0.696405 0.72372 0.697363 0.692915 0.699752 0.698144
          0.701776 0.690572 0.706337 0.707708 0.706431 0.694807
          0.714527 0.700938 0.72406 0.720505 0.697032 0.710611
          0.691455 0.709144 0.708707 0.69843 0.189792 0.663358
          0.682877 0.691165 0.692619 0.707969 0.694168 0.681206
          0.703988 0.689239 0.694777 0.700382 0.695487 0.707142
          0.690012 0.695455 0.710414 0.677321 0.710736 0.699013
          0.697039 0.702351 0.721718 0.697742 0.700412 0.705764
          0.714241 0.704959 0.716089 0.700849 0.70493 0.696869
          0.703623 0.707771 0.190142 0.68715 0.692866 0.694097
          0.682205 0.71871 0.703699 0.700652 0.690608 0.709628
          0.697503 0.724198 0.698672 0.69228 0.688205 0.702242
          0.697544 0.702452 0.703137 0.701137 0.687321 0.706413
          0.720289 0.705972 0.696895 0.705393 0.702129 0.697291
          0.702938 0.710712 0.710297 0.711793 0.7161 0.72562
          0.177839 0.660578 0.704373 0.693484 0.699957 0.688149
          0.687909 0.701574 0.718283 0.701673 0.698792 0.695093
          0.700653 0.694147 0.689343 0.704619 0.689675 0.68747
          0.691159 0.705958 0.686075 0.703298 0.700103 0.708288
          0.708638 0.701209 0.693805 0.701099 0.7003 0.713762
          0.674382 0.70065 0.703 0.691913 0.185131 0.666658
          0.709237 0.698817 0.707943 0.719694 0.695005 0.705388