<?xml version="1.0"?>
<VTKFile type="PolyData" version="0.1" byte_order="LittleEndian" header_type="UInt32" compressor="vtkZLibDataCompressor">
  <PolyData>
    <Piece NumberOfPoints="8160" NumberOfVerts="0" NumberOfLines="0" NumberOfStrips="0" NumberOfPolys="0">
      <PointData Scalars="Calcium Concentration">
        <DataArray type="Float32" Name="Calcium Concentration" format="ascii" RangeMin="0.14785300195217133" RangeMax="0.7395700216293335">
          0.164244 0.678031 0.688149 0.699767 0.719045 0.701958
          0.691297 0.696256 0.690939 0.706012 0.693553 0.711045
          0.69322 0.698143 0.70135 0.702785 0.694311 0.711198
          0.691788 0.690437 0.706803 0.68601 0.695783 0.681428
          0.683215 0.693204 0.691553 0.701824 0.695433 0.686785
          0.702919 0.695659 0.69329 0.689129 0.16999 0.696214
          0.70131 0.707775 0.708301 0.702719 0.696947 0.687189
          0.708062 0.703839 0.699872 0.698136 0.7045 0.707854
          0.693295 0.71064 0.694142 0.713865 0.699642 0.690928
          0.686996 0.691946 0.685849 0.679567 0.683012 0.700254
          0.688822 0.685483 0.691516 0.693341 0.712538 0.690682
          0.687351 0.695207 0.161987 0.661088 0.685582 0.682171
          0.680489 0.68902 0.688041 0.693341 0.684946 0.707842
          0.687361 0.694808 0.70218 0.701942 0.698059 0.707177
          0.704589 0.717082 0.708034 0.696918 0.715269 0.709641
          0.712922 0.718471 0.696568 0.710711 0.703859 0.720791
          0.706444 0.709988 0.704798 0.707034 0.708833 0.711633
          0.161448 0.680236 0.690849 0.695885 0.70222 0.699475
          0.709029 0.692343 0.714783 0.712947 0.698313 0.695515
          0.703935 0.706994 0.691631 0.699802 0.693392 0.707465
          0.702315 0.698681 0.705524 0.695193 0.693213 0.687509
          0.694715 0.697188 0.692754 0.703694 0.712873 0.701344
          0.698384 0.697149 0.693754 0.694827 0.158713 0.662136
          0.688446 0.684243 0.679728 0.699561 0.686699 0.683645
          0.709734 0.697434 0.697722 0.69469 0.691634 0.706339
          0.693947 0.705297 0.699218 0.708631 0.712478 0.696945
          0.705127 0.691289 0.703015 0.679102 0.693429 0.687
          0.69168 0.692813 0.696504 0.69581 0.68612 0.69764
          0.700202 0.695276 0.169143 0.681153 0.699509 0.704909
          0.707579 0.706752 0.69791 0.707821 0.680493 0.703221
          0.706389 0.703499 0.691433 0.697373 0.696936 0.6941
          0.690842 0.686447 0.697087 0.708344 0.695709 0.721757
          0.703577 0.700145 0.705972 0.721302 0.71223 0.699794
          0.695711 0.699862 0.717786 0.701809 0.698297 0.701891
          0.158026 0.669161 0.690432 0.686823 0.683773 0.698158
          0.675491 0.684775 0.691772 0.726781 0.693739 0.694881
          0.705579 0.694775 0.696597 0.687545 0.695514 0.712243
          0.692937 0.697185 0.684378 0.709072 0.694291 0.704326
          0.702534 0.715962 0.714663 0.714907 0.720491 0.713707
          0.706703 0.715729 0.70623 0.709795 0.160579 0.684817
          0.693878 0.703585 0.686095 0.714572 0.68984 0.683682
          0.682326 0.704566 0.717568 0.697136 0.686739 0.704525
          0.690132 0.715237 0.703849 0.693142 0.693894 0.688962
          0.688579 0.698439 0.690724 0.685712 0.689285 0.692215
          0.698433 0.683381 0.677755 0.693779 0.693132 0.687966
          0.674937 0.701721 0.154962 0.66857 0.683429 0.677736
          0.678851 0.685721 0.689151 0.698982 0.694704 0.707027
          0.701325 0.692411 0.6917 0.70588 0.682688 0.708149
          0.699487 0.700084 0.708688 0.696036 0.701259 0.712663
          0.69507 0.705637 0.691996 0.719576 0.700442 0.712993
          0.708946 0.705217 0.712115 0.715964 0.70763 0.715527
          0.164143 0.683723 0.691695 0.701441 0.705802 0.715945
          0.69855 0.690216 0.70604 0.699833 0.703233 0.694191
          0.691984 0.701073 0.699794 0.701026 0.699648 0.699572
          0.719681 0.686453 0.708023 0.712207 0.689436 0.708669
          0.706013 0.705503 0.702094 0.708515 0.708947 0.699493
          0.716751 0.699721 0.713547 0.714627 0.156232 0.68422
          0.692696 0.711514 0.685883 0.718099 0.691934 0.703006
          0.702808 0.702504 0.703755 0.694717 0.697837 0.697285
          0.690083 0.703587 0.698575 0.688885 0.698499 0.713702
          0.70954 0.706538 0.712051 0.71232 0.709818 0.694218
          0.695692 0.704444 0.718397 0.707224 0.716223 0.710528
          0.708048 0.707937 0.14949 0.670022 0.677261 0.689399
          0.682997 0.691233 0.685457 0.700436 0.703451 0.698934
          0.70617 0.703425 0.695897 0.694435 0.699761 0.712443
          0.698834 0.698551 0.704939 0.691833 0.689942 0.685151
          0.708255 0.682243 0.688875 0.697162 0.692991 0.691516
          0.6815 0.694902 0.692713 0.698336 0.696365 0.695456
          0.160467 0.687119 0.705828 0.693548 0.688526 0.690931
          0.708128 0.696743 0.71206 0.695794 0.69722 0.692995
          0.701782 0.693021 0.69261 0.701452 0.698019 0.699594
          0.713096 0.689948 0.691107 0.687103 0.699897 0.690808
          0.68574 0.698823 0.692209 0.691195 0.697931 0.694337
          0.69422 0.683632 0.702645 0.694869 0.163815 0.689876
          0.689401 0.705015 0.70807 0.693333 0.696684 0.688202
          0.702138 0.711248 0.708549 0.685255 0.687835 0.715776
          0.70846 0.694633 0.697964 0.690586 0.712805 0.699173
          0.68552 0.691981 0.679123 0.683217 0.677208 0.690827
          0.685037 0.690149 0.688101 0.692727 0.700985 0.687724
          0.682934 0.706415 0.153384 0.653196 0.684882 0.703873
          0.695289 0.687041 0.690587 0.69495 0.684119 0.704683
          0.692882 0.710654 0.696773 0.704852 0.684224 0.691312
          0.705692 0.69543 0.703144 0.698485 0.706671 0.711666
          0.718903 0.712786 0.701811 0.720277 0.704163 0.700895
          0.722172 0.716484 0.708 0.717197 0.712626 0.699966
          0.153592 0.698873 0.69823 0.693391 0.719893 0.704606
          0.695895 0.691867 0.716263 0.705 0.694536 0.706478
          0.709278 0.701335 0.689821 0.70554 0.702842 0.697615
          0.69553 0.70198 0.692933 0.686404 0.700471 0.683304
          0.693759 0.699169 0.694994 0.6899 0.684325 0.695021
          0.689257 0.697326 0.682894 0.696228 0.151787 0.66338
          0.697575 0.688509 0.695416 0.69114 0.695751 0.683602
          0.698801 0.683345 0.704872 0.706093 0.703003 0.702679
          0.698156 0.70166 0.69164 0.717816 0.706552 0.700262
          0.694939 0.696883 0.707671 0.684714 0.691104 0.686441
          0.68751 0.707246 0.706738 0.70628 0.71257 0.704781
          0.685341 0.69879 0.151578 0.680954 0.681267 0.670952
          0.688972 0.703883 0.685515 0.704334 0.692281 0.711089
          0.700001 0.704379 0.700382 0.695909 0.697189 0.692471
          0.69679 0.703795 0.695974 0.698605 0.68789 0.709566
          0.712565 0.703225 0.711083 0.729285 0.702271 0.698093
          0.714004 0.708228 0.710616 0.695953 0.716659 0.723618
          0.155526 0.664667 0.691007 0.68935 0.693691 0.687669
          0.693508 0.690536 0.705119 0.701124 0.704355 0.684903
          0.697066 0.698093 0.694169 0.698709 0.707962 0.707848
          0.697826 0.711585 0.687693 0.691611 0.695805 0.690143
          0.693909 0.704219 0.686105 0.683548 0.684651 0.695413
          0.700704 0.685234 0.702447 0.699753 0.165753 0.67808
          0.695962 0.708196 0.690849 0.698019 0.699774 0.691684
          0.697749 0.709068 0.691103 0.703015 0.693027 0.688102
          0.691718 0.694598 0.701857 0.70905 0.708044 0.69771
          0.684865 0.701767 0.681887 0.685321 0.69676 0.688983
          0.686151 0.689924 0.700673 0.688552 0.683913 0.687093
          0.686297 0.694245 0.156963 0.685943 0.686205 0.692314
          0.693258 0.700955 0.696533 0.712962 0.686494 0.687661
          0.710474 0.692909 0.701662 0.701095 0.681896 0.69176
          0.702773 0.705446 0.704767 0.696589 0.69444 0.697564
          0.674365 0.682614 0.689701 0.690409 0.693829 0.68783
          0.698816 0.694601 0.692438 0.69261 0.697892 0.701668
          0.162561 0.672869 0.695723 0.695716 0.700975 0.693563
          0.712349 0.706633 0.685822 0.704704 0.695878 0.686714
          0.713508 0.695838 0.685073 0.696075 0.68948 0.712242
          0.696556 0.705258 0.696101 0.708018 0.708998 0.709579
          0.703776 0.713744 0.709772 0.693888 0.722133 0.708513
          0.72346 0.704234 0.695472 0.709216 0.15883 0.697029
          0.681203 0.707896 0.702992 0.69911 0.70288 0.711155
          0.694699 0.698911 0.700418 0.689728 0.703989 0.694814
          0.682726 0.694333 0.710968 0.708062 0.702598 0.708356
          0.709686 0.717857 0.697477 0.708769 0.71912 0.709445
          0.700556 0.706414 0.69996 0.697908 0.71441 0.715295
          0.725647 0.715975 0.158708 0.697131 0.708245 0.686519
          0.698434 0.696883 0.703652 0.696426 0.699467 0.700559
          0.693631 0.697712 0.694524 0.70991 0.691903 0.702173
          0.702469 0.718264 0.696911 0.687933 0.708415 0.701888
          0.710637 0.711278 0.71167 0.712503 0.713246 0.71057
          0.722108 0.71189 0.703739 0.70817 0.711879 0.7196
          0.153266 0.675916 0.699969 0.700185 0.703382 0.687165
          0.710574 0.706179 0.70024 0.703782 0.699969 0.699331
          0.685486 0.701817 0.692305 0.700271 0.705334 0.69216
          0.696755 0.698404 0.698163 0.677772 0.672585 0.703505
          0.683454 0.700706 0.69925 0.692305 0.691147 0.704514
          0.687979 0.681018 0.688795 0.692317 0.16257 0.671368
          0.709846 0.708628 0.700922 0.711189 0.70613 0.702113
          0.68741 0.703026 0.688387 0.704246 0.702029 0.709531
          0.700313 0.705623 0.695241 0.708829 0.698157 0.706962
          0.704611 0.690353 0.682311 0.68247 0.684744 0.688805
          0.703179 0.695076 0.697907 0.701443 0.690024 0.689373
          0.694872 0.697109 0.16394 0.69008 0.686022 0.702073
          0.707307 0.707209 0.70632 0.697985 0.695322 0.687332
          0.721934 0.690229 0.700508 0.699996 0.697049 0.687724
          0.711 0.721288 0.686182 0.693125 0.707387 0.701277
          0.676958 0.702571 0.689006 0.696221 0.682979 0.694718
          0.677816 0.688054 0.683735 0.680242 0.693979 0.689379
          0.170845 0.67892 0.693334 0.685942 0.68631 0.690885
          0.691788 0.69131 0.691465 0.703377 0.697084 0.679519
          0.687127 0.681569 0.686053 0.701996 0.699248 0.69199
          0.703288 0.689655 0.709268 0.700159 0.689903 0.689095
          0.685295 0.700992 0.692486 0.681721 0.688351 0.685234
          0.705682 0.692573 0.676079 0.697475 0.155299 0.683583
          0.692442 0.692737 0.694351 0.700216 0.696624 0.708416
          0.69485 0.726807 0.681792 0.680005 0.708435 0.701983
          0.705656 0.694085 0.693503 0.69843 0.688456 0.709465
          0.698296 0.690125 0.677689 0.685893 0.696772 0.683803
          0.6876 0.692246 0.72183 0.700393 0.688015 0.700141
          0.693362 0.686784 0.15721 0.678966 0.692107 0.690196
          0.703648 0.696621 0.701628 0.693525 0.696009 0.710107
          0.704631 0.690278 0.700574 0.698534 0.683905 0.72369
          0.695789 0.696887 0.70791 0.693777 0.701581 0.686783
          0.695237 0.691909 0.686965 0.694586 0.684388 0.699614
          0.695663 0.694847 0.694387 0.680037 0.677478 0.699055
          0.155099 0.665858 0.691393 0.687991 0.67845 0.696402
          0.682574 0.700474 0.687449 0.694123 0.704421 0.703528
          0.703139 0.702868 0.699071 0.704138 0.694356 0.691613
          0.696179 0.698544 0.697587 0.717338 0.714155 0.717208
          0.714668 0.719637 0.721916 0.690883 0.708989 0.710918
          0.689496 0.701003 0.704833 0.706839 0.160648 0.674336
          0.699552 0.692461 0.691467 0.702124 0.705535 0.684171
          0.684016 0.686188 0.696066 0.690233 0.691888 0.705059
          0.692163 0.704897 0.69802 0.703277 0.705443 0.692719
          0.701144 0.705778 0.72846 0.704783 0.693009 0.718
          0.689893 0.703382 0.713822 0.70847 0.708288 0.710918
          0.711481 0.714103 0.157615 0.67981 0.69115 0.701208
          0.708694 0.705678 0.706307 0.690366 0.687046 0.713604
          0.690604 0.687611 0.712245 0.696393 0.683364 0.698701
          0.69126 0.704103 0.709845 0.690614 0.70155 0.706633
          0.699939 0.708787 0.705249 0.706825 0.70563 0.71044
          0.70269 0.707604 0.718006 0.711849 0.713764 0.710754
          0.158335 0.668172 0.687279 0.705448 0.681348 0.686434
          0.691106 0.692607 0.686745 0.686838 0.717371 0.706443
          0.691879 0.703069 0.69215 0.70805 0.704702 0.701644
          0.70697 0.688367 0.708427 0.692125 0.691724 0.713204
          0.705893 0.681547 0.690338 0.695377 0.688103 0.694509
          0.696868 0.687148 0.70324 0.699851 0.164543 0.676992
          0.692533 0.687185 0.677656 0.691811 0.681995 0.688827
          0.700937 0.706402 0.700466 0.707716 0.699429 0.702238
          0.698252 0.703105 0.706744 0.696818 0.7015 0.722482
          0.701437 0.703715 0.694105 0.683112 0.685514 0.685355
          0.698801 0.698577 0.69519 0.705768 0.687849 0.698003
          0.688218 0.685853 0.156431 0.655361 0.682126 0.700363
          0.701291 0.698778 0.680214 0.686721 0.696593 0.692515
          0.68438 0.691815 0.698869 0.701639 0.713448 0.709315
          0.701027 0.706556 0.703866 0.711535 0.691395 0.705936
          0.697486 0.694168 0.7109 0.699085 0.703122 0.706826
          0.703118 0.699562 0.69345 0.685949 0.684475 0.685332
          0.155491 0.676608 0.688409 0.707651 0.698364 0.709815
          0.699927 0.693161 0.710407 0.701814 0.688422 0.707849
          0.689604 0.692763 0.687375 0.703371 0.691526 0.698947
          0.693821 0.713142 0.698501 0.686356 0.70032 0.680274
          0.688526 0.698503 0.682923 0.688156 0.701209 0.695368
          0.685764 0.673897 0.690558 0.683087 0.158561 0.656187
          0.683749 0.690563 0.706493 0.684254 0.684305 0.689735
          0.700228 0.6956 0.70134 0.696362 0.702222 0.694324
          0.688851 0.703821 0.690041 0.696419 0.692964 0.704794
          0.690822 0.696275 0.70997 0.704178 0.706131 0.706502
          0.71834 0.715892 0.710146 0.713261 0.69568 0.718061
          0.714433 0.712075 0.163484 0.694125 0.686937 0.699854
          0.698725 0.692015 0.691885 0.691704 0.695479 0.710674
          0.687757 0.709078 0.69642 0.691168 0.702576 0.701364
          0.697276 0.700405 0.712466 0.697998 0.706226 0.696301
          0.693667 0.701529 0.708431 0.706777 0.709652 0.687566
          0.683119 0.69841 0.694593 0.685217 0.690426 0.695065
          0.160529 0.685952 0.696025 0.700456 0.687584 0.701042
          0.697865 0.695059 0.704882 0.706661 0.702606 0.695324
          0.71767 0.698725 0.691595 0.703375 0.696507 0.705962
          0.690228 0.68886 0.702909 0.700256 0.690839 0.685761
          0.688103 0.682749 0.686651 0.688694 0.698737 0.697513
          0.714686 0.699862 0.679955 0.697382 0.156834 0.675095
          0.698183 0.705705 0.701428 0.697926 0.7061 0.697951
          0.710293 0.699988 0.696863 0.718256 0.697049 0.692722
          0.696601 0.696857 0.70075 0.708307 0.684365 0.709864
          0.694008 0.695023 0.697655 0.695492 0.695588 0.696711
          0.702104 0.694669 0.698639 0.699835 0.680587 0.697206
          0.688608 0.688763 0.151257 0.683621 0.71236 0.693504
          0.68385 0.700945 0.695198 0.713538 0.697294 0.701036
          0.707103 0.690474 0.701736 0.694685 0.690575 0.712188
          0.697147 0.704588 0.704024 0.703388 0.696436 0.704143
          0.701979 0.69861 0.710982 0.724546 0.709164 0.710427
          0.707676 0.707967 0.710102 0.711775 0.701263 0.715458
          0.158801 0.674818 0.692019 0.700304 0.691045 0.696965
          0.706797 0.685605 0.698301 0.70861 0.722868 0.695532
          0.690924 0.697723 0.699813 0.688705 0.70021 0.699806
          0.704631 0.696729 0.684993 0.689084 0.701069 0.688985
          0.681463 0.698125 0.689675 0.687632 0.684674 0.690691
          0.691772 0.698496 0.680733 0.689305 0.148328 0.682018
          0.696225 0.69134 0.698362 0.706871 0.700675 0.703062
          0.696383 0.703062 0.699013 0.69496 0.705544 0.701366
          0.69237 0.70029 0.701346 0.703889 0.700766 0.690033
          0.701087 0.699716 0.701015 0.709205 0.707643 0.708676
          0.708414 0.695054 0.711683 0.712263 0.69522 0.706953
          0.71522 0.700996 0.155144 0.650541 0.689754 0.691033
          0.692107 0.692664 0.691404 0.703571 0.695567 0.696858
          0.687179 0.698797 0.680905 0.708371 0.696962 0.700594
          0.695798 0.716814 0.701957 0.69924 0.706019 0.707708
          0.710666 0.712958 0.716834 0.706322 0.718109 0.727214
          0.724213 0.711561 0.693773 0.733882 0.708175 0.706428
          0.160905 0.662723 0.679011 0.683049 0.686665 0.695216
          0.700818 0.690593 0.683802 0.708027 0.720836 0.696743
          0.688073 0.700902 0.699668 0.707998 0.70053 0.71103
          0.690432 0.702511 0.705768 0.706708 0.717119 0.706614
          0.708411 0.71913 0.711296 0.708079 0.702577 0.716444
          0.705771 0.715549 0.71645 0.715262 0.155058 0.666341
          0.686041 0.690665 0.689124 0.680847 0.694256 0.682545
          0.705197 0.717021 0.693539 0.694987 0.702594 0.704279
          0.696808 0.70094 0.703853 0.708759 0.702284 0.688836
          0.713165 0.71031 0.714102 0.703229 0.693912 0.696391
          0.698857 0.707497 0.710165 0.714137 0.699248 0.71654
          0.717492 0.713088 0.164893 0.698507 0.699146 0.685187
          0.693318 0.706141 0.700488 0.691075 0.700823 0.701412
          0.699176 0.673316 0.690699 0.707627 0.68304 0.708449
          0.705542 0.701471 0.711824 0.705444 0.704372 0.701992
          0.715757 0.706597 0.686984 0.709249 0.704937 0.717509
          0.709318 0.710574 0.723408 0.710818 0.699519 0.716696
          0.148364 0.664355 0.684873 0.699192 0.692884 0.691581
          0.704577 0.687725 0.68503 0.68559 0.709656 0.704697
          0.707267 0.700949 0.690433 0.706752 0.693704 0.698957
          0.703826 0.697475 0.692292 0.687068 0.68099 0.698058
          0.698563 0.68824 0.696415 0.696428 0.683134 0.698999
          0.693696 0.693242 0.698542 0.697767 0.164528 0.672326
          0.696096 0.701151 0.687478 0.697638 0.696619 0.70168
          0.701388 0.7096 0.694969 0.703869 0.706749 0.680472
          0.715798 0.700487 0.699112 0.703023 0.695725 0.708957
          0.695627 0.699108 0.69744 0.692676 0.688251 0.696394
          0.702775 0.710808 0.70364 0.678335 0.690809 0.69166
          0.691553 0.68605 0.164099 0.669605 0.700563 0.685404
          0.679866 0.688085 0.681299 0.70135 0.706141 0.699023
          0.681954 0.691673 0.688478 0.702743 0.713288 0.704893
          0.690616 0.697185 0.693523 0.700941 0.700078 0.68686
          0.692439 0.685573 0.696043 0.697393 0.689377 0.697303
          0.704747 0.712158 0.681813 0.693993 0.701776 0.708725
          0.156474 0.653466 0.685837 0.698189 0.694572 0.680226
          0.695543 0.700026 0.696106 0.678909 0.69216 0.70463
          0.700432 0.696579 0.707664 0.710528 0.685358 0.688357
          0.71201 0.702976 0.692247 0.728887 0.708889 0.723751
          0.725167 0.722448 0.712195 0.700215 0.704978 0.70194
          0.697811 0.708717 0.715923 0.693763 0.160678 0.655859
          0.690984 0.703247 0.693647 0.682284 0.674359 0.693647
          0.703071 0.688969 0.701096 0.706164 0.696083 0.710557
          0.706332 0.702206 0.698224 0.694583 0.701936 0.706325
          0.697858 0.705567 0.695846 0.695053 0.7114 0.677224
          0.698436 0.698482 0.689416 0.685632 0.693274 0.707544
          0.694087 0.699888 0.167745 0.679739 0.696812 0.682929
          0.684358 0.692332 0.707568 0.693937 0.678171 0.702323
          0.722319 0.686109 0.708255 0.694432 0.687447 0.701786
          0.700778 0.698802 0.705806 0.706475 0.705577 0.684979
          0.69718 0.705306 0.677768 0.692364 0.700317 0.688467
          0.68012 0.6987 0.686142 0.694115 0.704754 0.686165
          0.157298 0.70007 0.707037 0.728171 0.68668 0.6979
          0.697859 0.70799 0.699979 0.711607 0.688759 0.693001
          0.704545 0.702934 0.680134 0.692641 0.694379 0.711219
          0.705067 0.692521 0.69956 0.695897 0.702395 0.704663
          0.721134 0.710842 0.711596 0.709877 0.703458 0.711476
          0.71962 0.711053 0.711748 0.721561 0.16577 0.687934
          0.698137 0.704036 0.699271 0.694802 0.699922 0.692391
          0.697388 0.707744 0.692567 0.686308 0.699377 0.688743
          0.681601 0.695736 0.711265 0.704674 0.703171 0.699809
          0.702704 0.703995 0.709949 0.699109 0.714161 0.697394
          0.694698 0.704789 0.705022 0.707637 0.724511 0.711905
          0.718201 0.700479 0.159298 0.651531 0.695353 0.695172
          0.686006 0.680821 0.685729 0.685823 0.698972 0.697513
          0.69874 0.690543 0.711273 0.693832 0.703055 0.705434
          0.692581 0.703372 0.699032 0.698628 0.696314 0.692166
          0.689957 0.697391 0.699507 0.702823 0.696247 0.709816
          0.699168 0.706915 0.687063 0.714747 0.698552 0.69694
          0.169621 0.694677 0.713012 0.698379 0.702106 0.701748
          0.707826 0.699671 0.702378 0.67832 0.701286 0.708595
          0.703686 0.705796 0.696119 0.698175 0.698631 0.698758
          0.698073 0.707431 0.702274 0.712312 0.698503 0.703803
          0.70747 0.701885 0.697033 0.700169 0.708715 0.703716
          0.703221 0.704124 0.717802 0.707946 0.164258 0.663581
          0.680369 0.688777 0.686047 0.68418 0.6865 0.693616
          0.706986 0.711825 0.702033 0.701053 0.699901 0.702481
          0.708058 0.690111 0.70956 0.700335 0.704206 0.699166
          0.696215 0.702456 0.681968 0.683252 0.699125 0.686425
          0.687983 0.688606 0.693681 0.688096 0.688797 0.687234
          0.690354 0.702018 0.158733 0.678926 0.698396 0.699879
          0.702849 0.701964 0.692839 0.688772 0.692669 0.68936
          0.720255 0.701512 0.689744 0.695959 0.7075 0.693743
          0.710606 0.699284 0.689161 0.700373 0.688465 0.694751
          0.689689 0.689887 0.700516 0.701949 0.700256 0.692673
          0.684282 0.695555 0.675671 0.683747 0.693659 0.680263
          0.162584 0.692641 0.698128 0.692015 0.700044 0.700593
          0.69261 0.699672 0.698639 0.706019 0.698402 0.708436
          0.693838 0.696647 0.697475 0.687945 0.693668 0.693215
          0.707826 0.696309 0.698822 0.687212 0.687304 0.697941
          0.693982 0.692625 0.690485 0.694673 0.679376 0.685267
          0.683671 0.682763 0.689379 0.69381 0.169012 0.699112
          0.702646 0.691527 0.702944 0.714905 0.680883 0.710193
          0.702409 0.691393 0.715511 0.698362 0.70568 0.714894
          0.695759 0.714577 0.698021 0.704039 0.699819 0.709906
          0.687918 0.689018 0.685498 0.679813 0.681729 0.705401
          0.674768 0.683117 0.693153 0.684701 0.703039 0.682622
          0.691141 0.70176 0.150002 0.667233 0.690744 0.698844
          0.680792 0.688495 0.676694 0.703537 0.697524 0.683836
          0.693563 0.721443 0.705337 0.697913 0.70189 0.695224
          0.69618 0.694365 0.704427 0.709145 0.693985 0.717996
          0.717827 0.702178 0.718199 0.704249 0.711793 0.714549
          0.711443 0.708703 0.69668 0.728479 0.712401 0.699278
          0.161784 0.666345 0.681574 0.689567 0.684785 0.679694
          0.682053 0.710551 0.70045 0.692892 0.692739 0.71262
          0.695878 0.711041 0.700526 0.699365 0.692995 0.693312
          0.704785 0.699145 0.703997 0.693146 0.683514 0.676963
          0.691942 0.690623 0.693452 0.698551 0.692742 0.690929
          0.690677 0.684839 0.69547 0.693542 0.156788 0.674278
          0.693572 0.698444 0.70016 0.685821 0.690796 0.68854
          0.689533 0.695692 0.70298 0.698896 0.695715 0.694714
          0.697386 0.693401 0.692854 0.695293 0.703692 0.688467
          0.710553 0.714088 0.713973 0.708535 0.725343 0.710403
          0.701869 0.697221 0.701118 0.708757 0.731261 0.721918
          0.700457 0.722643 0.16455 0.653527 0.68982 0.70245
          0.701544 0.701886 0.694233 0.715118 0.71344 0.698056
          0.706225 0.706258 0.697648 0.7058 0.705522 0.693465
          0.6904 0.71094 0.69716 0.70039 0.691127 0.69715
          0.702089 0.710535 0.708292 0.696274 0.694003 0.697824
          0.692123 0.701912 0.676013 0.678799 0.68983 0.682165
          0.169305 0.675949 0.702637 0.700074 0.691972 0.700917
          0.701558 0.697235 0.708151 0.696903 0.700742 0.703928
          0.711594 0.708441 0.700206 0.710339 0.685006 0.694645
          0.703978 0.689889 0.708139 0.686294 0.706051 0.693856
          0.698982 0.684045 0.703304 0.677121 0.681278 0.691543
          0.697244 0.685572 0.70783 0.69073 0.169236 0.664799
          0.703992 0.69891 0.689147 0.702735 0.694249 0.707467
          0.702634 0.711803 0.695398 0.706675 0.691906 0.695235
          0.7131 0.695674 0.709096 0.709355 0.700819 0.711977
          0.711347 0.689902 0.69192 0.693947 0.700965 0.691971
          0.713436 0.692385 0.691359 0.706078 0.67991 0.702824
          0.69043 0.686599 0.161994 0.68119 0.709311 0.703611
          0.68898 0.692822 0.698136 0.693618 0.685869 0.696807
          0.691494 0.680681 0.712883 0.7027 0.689057 0.694554
          0.70694 0.707096 0.701501 0.692521 0.707359 0.694277
          0.694783 0.709523 0.705491 0.701693 0.709155 0.703572
          0.716081 0.707126 0.703573 0.688335 0.720348 0.724749
          0.165867 0.674075 0.683747 0.678009 0.681903 0.691767
          0.690932 0.688224 0.702734 0.689769 0.716159 0.709331
          0.698554 0.712076 0.685469 0.706057 0.700063 0.703991
          0.702427 0.689464 0.69885 0.693664 0.685456 0.685917
          0.682203 0.69355 0.694289 0.683252 0.694323 0.691927
          0.684175 0.692568 0.695626 0.685674 0.170704 0.695852
          0.69577 0.706974 0.696336 0.695716 0.706166 0.697111
          0.70766 0.695499 0.707959 0.677405 0.724467 0.711652
          0.689296 0.698965 0.708581 0.71505 0.696347 0.695338
          0.690331 0.692141 0.67526 0.691446 0.700523 0.68997
          0.679177 0.689377 0.68129 0.689633 0.697725 0.690018
          0.701738 0.711859 0.164274 0.662734 0.702237 0.696795
          0.690986 0.695938 0.689533 0.69828 0.708826 0.684696
          0.704996 0.706981 0.70103 0.709825 0.693493 0.718422
          0.683104 0.685942 0.70794 0.708269 0.697777 0.69585
          0.712062 0.699157 0.709663 0.689261 0.700225 0.70355
          0.702189 0.70724 0.690385 0.701281 0.701283 0.69445
          0.160145 0.684936 0.700649 0.695491 0.687144 0.702419
          0.709043 0.710684 0.70468 0.710447 0.690757 0.705882
          0.691491 0.705638 0.709795 0.706242 0.696188 0.700977
          0.707566 0.686871 0.701707 0.712233 0.704042 0.712823
          0.713821 0.710095 0.700785 0.696445 0.706619 0.699744
          0.69833 0.718806 0.716374 0.710803 0.150075 0.654949
          0.687991 0.692081 0.697472 0.695286 0.679814 0.682007
          0.6917 0.712102 0.703044 0.709453 0.691779 0.698084
          0.703305 0.695728 0.714037 0.690295 0.704614 0.693825
          0.708754 0.709009 0.711386 0.709585 0.711775 0.703067
          0.695308 0.702941 0.697733 0.705678 0.710077 0.717435
          0.711958 0.71173 0.158502 0.658556 0.697378 0.692458
          0.689988 0.701372 0.698172 0.700084 0.688051 0.683755
          0.687703 0.697065 0.699863 0.706242 0.70252 0.694455
          0.693822 0.690291 0.703089 0.693646 0.709112 0.715398
          0.722308 0.710591 0.711453 0.713714 0.702806 0.709881
          0.700908 0.717391 0.700007 0.70135 0.707968 0.704221
          0.158454 0.678656 0.696105 0.693501 0.713054 0.70023
          0.697555 0.690546 0.694096 0.699966 0.696003 0.694324
          0.702178 0.693103 0.701118 0.692927 0.689331 0.702465
          0.703092 0.698161 0.703182 0.708964 0.70177 0.694618
          0.703586 0.70941 0.71647 0.729938 0.696332 0.702423
          0.703722 0.712626 0.720298 0.710406 0.162218 0.668794
          0.685794 0.711916 0.695878 0.694175 0.697302 0.696975
          0.70602 0.703572 0.689703 0.701772 0.701514 0.706092
          0.690718 0.690693 0.690743 0.699272 0.70005 0.700736
          0.722041 0.704993 0.697782 0.706305 0.710035 0.712476
          0.701815 0.709561 0.706302 0.712569 0.692419 0.697996
          0.710897 0.708761 0.171241 0.672195 0.684526 0.6773
          0.680937 0.694093 0.691142 0.691085 0.700959 0.696239
          0.707482 0.68406 0.714666 0.695757 0.68006 0.705765
          0.693597 0.700199 0.704139 0.703873 0.705286 0.699524
          0.709048 0.703883 0.701301 0.699222 0.698674 0.707389
          0.698774 0.686666 0.721881 0.70254 0.70033 0.715143
          0.156982 0.684417 0.704351 0.704062 0.692177 0.703842
          0.696734 0.721331 0.693172 0.690475 0.694898 0.72008
          0.696233 0.724692 0.697304 0.6947 0.69972 0.698054
          0.703937 0.696311 0.704597 0.708002 0.704636 0.696667
          0.713095 0.69686 0.723036 0.715263 0.698905 0.707035
          0.691105 0.707418 0.707022 0.698312 0.166906 0.661852
          0.680207 0.69079 0.692324 0.704196 0.693934 0.680444
          0.702096 0.688731 0.692524 0.702444 0.695292 0.70745
          0.693707 0.699372 0.710845 0.678451 0.711167 0.701043
          0.699007 0.702458 0.722589 0.695575 0.698423 0.708
          0.714831 0.705165 0.716745 0.700845 0.707175 0.698774
          0.705789 0.710123 0.169313 0.684593 0.694641 0.695932
          0.68147 0.71743 0.701793 0.702753 0.690252 0.709997
          0.701491 0.725213 0.700648 0.691955 0.689809 0.702292
          0.697402 0.700529 0.701258 0.705247 0.686803 0.702618
          0.72311 0.698039 0.698814 0.705586 0.698204 0.701268
          0.705132 0.711106 0.712793 0.714269 0.718763 0.724636
          0.158541 0.658989 0.698431 0.693193 0.699977 0.683596
          0.687425 0.701652 0.718989 0.703737 0.696709 0.697008
          0.696609 0.698016 0.690991 0.704824 0.691232 0.691049
          0.694848 0.70614 0.683493 0.705463 0.698041 0.708688
          0.708977 0.701221 0.693561 0.699088 0.702423 0.712284
          0.67335 0.698563 0.699036 0.68951 0.162023 0.66535
          0.709614 0.700783 0.708267 0.718464 0.694784 0.701564