<?xml version="1.0"?>
<VTKFile type="PolyData" version="0.1" byte_order="LittleEndian" header_type="UInt32" compressor="vtkZLibDataCompressor">
  <PolyData>
    <Piece NumberOfPoints="8160" NumberOfVerts="0" NumberOfLines="0" NumberOfStrips="0" NumberOfPolys="0">
      <PointData Scalars="Calcium Concentration">
        <DataArray type="Float32" Name="Calcium Concentration" format="ascii" RangeMin="0.12576299905776978" RangeMax="0.7403960227966309">
          0.138275 0.679132 0.6897 0.69975 0.721866 0.702016
          0.692943 0.696125 0.688463 0.70422 0.691308 0.709414
          0.690932 0.700116 0.701453 0.704931 0.694067 0.707606
          0.687415 0.690031 0.709182 0.683396 0.693527 0.68067
          0.682479 0.690879 0.693293 0.701876 0.69727 0.688281
          0.698952 0.697516 0.695011 0.68665 0.144227 0.696
          0.699328 0.705999 0.708641 0.700761 0.698837 0.688761
          0.706311 0.704008 0.701884 0.698104 0.702611 0.712254
          0.695103 0.715182 0.689835 0.714435 0.701618 0.690537
          0.68654 0.691584 0.685291 0.67668 0.680328 0.696175
          0.682222 0.688988 0.689059 0.691044 0.708937 0.688191
          0.686829 0.699055 0.139974 0.659536 0.686976 0.685503
          0.681708 0.690626 0.689578 0.691026 0.688391 0.708171
          0.68691 0.696656 0.6982 0.70404 0.697971 0.707527
          0.702685 0.719769 0.7104 0.69676 0.715919 0.712097
          0.711461 0.719223 0.698475 0.709084 0.704046 0.719625
          0.708712 0.706307 0.707032 0.709342 0.709185 0.712148
          0.141506 0.68145 0.690448 0.693631 0.7003 0.701476
          0.709357 0.694083 0.717379 0.715501 0.698278 0.693266
          0.702055 0.707272 0.693363 0.697789 0.695132 0.705701
          0.702377 0.698618 0.707818 0.694954 0.692957 0.691094
          0.698595 0.699082 0.692491 0.699769 0.711396 0.699364
          0.694235 0.699091 0.691448 0.69664 0.136545 0.666716
          0.690012 0.681502 0.682991 0.695432 0.686121 0.683017
          0.710102 0.697308 0.697638 0.692417 0.691353 0.704591
          0.693722 0.705572 0.70119 0.706985 0.710888 0.696848
          0.70532 0.692982 0.699035 0.678274 0.693213 0.690535
          0.695445 0.688458 0.694309 0.69355 0.687596 0.701612
          0.702232 0.693016 0.149511 0.682432 0.701461 0.703076
          0.705846 0.702945 0.69985 0.708164 0.679711 0.705342
          0.704633 0.703631 0.689047 0.697263 0.696858 0.695918
          0.692512 0.687881 0.698947 0.70665 0.695546 0.722602
          0.70578 0.700171 0.708284 0.722122 0.708647 0.699832
          0.6976 0.699892 0.7185 0.703889 0.700227 0.706047
          0.13996 0.667867 0.688011 0.684265 0.685125 0.693972
          0.678606 0.684185 0.69343 0.729863 0.691431 0.694656
          0.703781 0.692495 0.698495 0.685024 0.695285 0.710682
          0.690566 0.697079 0.687851 0.711523 0.696082 0.704557
          0.704683 0.712506 0.717343 0.71347 0.723329 0.716272
          0.704934 0.712292 0.708497 0.712279 0.138511 0.682117
          0.693682 0.697615 0.685544 0.7172 0.68941 0.683065
          0.683647 0.704698 0.718265 0.697035 0.690287 0.702684
          0.689723 0.717931 0.701922 0.694882 0.693664 0.69055
          0.690169 0.700419 0.69032 0.681057 0.688884 0.689847
          0.696364 0.684751 0.680931 0.69555 0.69286 0.689529
          0.671849 0.701744 0.130678 0.667318 0.682765 0.678849
          0.682075 0.685101 0.688719 0.700969 0.692472 0.707263
          0.701335 0.692052 0.695451 0.706136 0.684012 0.70845
          0.699438 0.695969 0.706943 0.697895 0.697259 0.711115
          0.696909 0.703799 0.695762 0.718284 0.702531 0.713543
          0.70929 0.703379 0.714632 0.714586 0.707949 0.716167
          0.14225 0.678928 0.689288 0.70354 0.704035 0.714529
          0.698435 0.6898 0.706218 0.697736 0.703338 0.695958
          0.693674 0.701151 0.699821 0.701106 0.69962 0.701583
          0.716373 0.681793 0.706352 0.710636 0.688984 0.711069
          0.704233 0.707751 0.702188 0.71096 0.703129 0.697413
          0.715411 0.701703 0.71611 0.715194 0.138093 0.685558
          0.694404 0.709905 0.685306 0.714674 0.693596 0.705149
          0.702889 0.696474 0.69986 0.692516 0.695718 0.697191
          0.689722 0.703741 0.69855 0.686383 0.696403 0.7122
          0.710004 0.70685 0.710501 0.712844 0.710216 0.693962
          0.699619 0.704684 0.719144 0.707556 0.714884 0.704845
          0.708383 0.70421 0.131075 0.668805 0.680425 0.688944
          0.682325 0.69081 0.684899 0.698448 0.703521 0.700902
          0.704436 0.701545 0.691644 0.698262 0.69773 0.715004
          0.698754 0.696366 0.703087 0.689423 0.68755 0.682571
          0.708586 0.683572 0.688445 0.694967 0.692699 0.68917
          0.684832 0.692669 0.694476 0.700269 0.69416 0.697314
          0.136398 0.68662 0.701974 0.695271 0.6901 0.690511
          0.706435 0.698668 0.710481 0.695659 0.701185 0.698839
          0.699767 0.692764 0.694376 0.699492 0.697922 0.703631
          0.70748 0.689556 0.692846 0.690667 0.701971 0.688407
          0.687209 0.696704 0.693988 0.692902 0.697796 0.694135
          0.696002 0.687033 0.702734 0.696757 0.141873 0.689465
          0.690971 0.709277 0.71044 0.69712 0.696533 0.685649
          0.704281 0.711675 0.706852 0.68464 0.691427 0.714363
          0.708834 0.698519 0.697918 0.688157 0.709262 0.699177
          0.689033 0.691666 0.680289 0.68051 0.678303 0.692489
          0.688533 0.689766 0.687643 0.690407 0.698989 0.685151
          0.68425 0.704609 0.133093 0.655407 0.686341 0.701978
          0.693025 0.686483 0.692185 0.694769 0.685518 0.70277
          0.694653 0.715136 0.694574 0.707047 0.683594 0.690982
          0.703861 0.697267 0.703235 0.698396 0.704921 0.710096
          0.717631 0.713311 0.699873 0.721063 0.704382 0.700934
          0.720994 0.721242 0.708337 0.715854 0.713135 0.699976
          0.13125 0.696773 0.700263 0.69516 0.716624 0.702706
          0.697776 0.695637 0.71689 0.707237 0.694319 0.708841
          0.713741 0.701403 0.691459 0.703776 0.702881 0.699563
          0.697388 0.704048 0.696747 0.687912 0.704572 0.684638
          0.695534 0.697082 0.690745 0.689487 0.685716 0.69273
          0.68683 0.693104 0.682203 0.691978 0.131416 0.663943
          0.697501 0.690024 0.695243 0.690773 0.697605 0.685002
          0.700767 0.684685 0.703059 0.71039 0.703128 0.702812
          0.696019 0.70175 0.69128 0.714474 0.704761 0.700297
          0.696814 0.694711 0.703901 0.684058 0.690726 0.689951
          0.689086 0.705517 0.702901 0.706526 0.71308 0.702953
          0.686731 0.702817 0.131171 0.680143 0.680439 0.67179
          0.688478 0.701971 0.68695 0.706551 0.693951 0.709469
          0.699959 0.702517 0.700419 0.697843 0.699163 0.696273
          0.698652 0.703928 0.697807 0.696458 0.689474 0.709953
          0.711084 0.701306 0.705425 0.728414 0.700362 0.702115
          0.716607 0.706586 0.709082 0.695802 0.715267 0.72453
          0.135349 0.665261 0.69268 0.68685 0.693447 0.689191
          0.695261 0.690146 0.705304 0.699168 0.704585 0.686262
          0.692878 0.704132 0.698035 0.698637 0.706236 0.706077
          0.699715 0.712015 0.687235 0.695347 0.69971 0.687662
          0.691662 0.706435 0.685539 0.684922 0.684041 0.695201
          0.702747 0.684651 0.702518 0.699746 0.14395 0.675062
          0.695747 0.70445 0.692558 0.697968 0.699808 0.691423
          0.699655 0.707322 0.690715 0.705136 0.694772 0.689632
          0.695486 0.696462 0.701929 0.70533 0.710377 0.701719
          0.680211 0.699794 0.679105 0.682698 0.694602 0.688507
          0.683557 0.6916 0.698631 0.688059 0.685278 0.68659
          0.689789 0.693998 0.134785 0.685374 0.689683 0.691989
          0.695065 0.698903 0.696424 0.713517 0.687943 0.687098
          0.708864 0.692621 0.699697 0.705254 0.683188 0.691442
          0.70292 0.705673 0.704934 0.696471 0.694223 0.697442
          0.675357 0.685998 0.687242 0.687927 0.691521 0.687364
          0.700778 0.69434 0.694207 0.696375 0.697773 0.6997
          0.140583 0.67375 0.695547 0.693514 0.701002 0.693293
          0.708744 0.708969 0.687283 0.706909 0.697777 0.684171
          0.714083 0.695701 0.686558 0.695906 0.69105 0.710663
          0.692381 0.709525 0.697984 0.710385 0.709351 0.714058
          0.703953 0.714269 0.710177 0.695655 0.722959 0.706779
          0.726485 0.702366 0.697281 0.711565 0.136675 0.694889
          0.680497 0.708206 0.701081 0.699029 0.702964 0.707519
          0.694438 0.698828 0.700439 0.691362 0.700065 0.69462
          0.682086 0.690036 0.709356 0.70434 0.700602 0.708677
          0.712166 0.718576 0.693272 0.709187 0.715818 0.709767
          0.704679 0.704689 0.699949 0.695792 0.715018 0.717959
          0.726656 0.720701 0.134519 0.692883 0.706542 0.69003
          0.698409 0.694732 0.703734 0.696302 0.697375 0.698537
          0.693365 0.69961 0.696349 0.712319 0.693676 0.702269
          0.702567 0.714912 0.700838 0.687381 0.708793 0.701969
          0.709041 0.705601 0.710079 0.713033 0.711744 0.711012
          0.723003 0.708264 0.705964 0.710491 0.710287 0.72031
          0.135002 0.674935 0.697868 0.702233 0.70352 0.690694
          0.706916 0.706499 0.700258 0.703942 0.697889 0.699309
          0.682901 0.699898 0.69198 0.698271 0.709616 0.689752
          0.698604 0.700383 0.694022 0.67895 0.671444 0.70365
          0.684804 0.700689 0.697204 0.69198 0.692873 0.706769
          0.689507 0.682246 0.686275 0.694 0.138551 0.670271
          0.710219 0.70893 0.700999 0.713678 0.704298 0.704235
          0.690958 0.703121 0.689935 0.708522 0.702087 0.707874
          0.702412 0.705888 0.692972 0.71324 0.696065 0.709226
          0.70685 0.692004 0.683631 0.683807 0.684073 0.688326
          0.703317 0.694907 0.697816 0.701539 0.689643 0.686874
          0.694654 0.696982 0.142056 0.685591 0.685438 0.702151
          0.707577 0.707503 0.700438 0.697925 0.697145 0.686757
          0.718739 0.691907 0.696455 0.702037 0.696963 0.689293
          0.711429 0.722118 0.683522 0.692813 0.707724 0.701321
          0.678042 0.704732 0.690611 0.696004 0.68435 0.692452
          0.678991 0.687524 0.683114 0.679391 0.693676 0.686925
          0.149194 0.677999 0.691013 0.687401 0.683714 0.692554
          0.689351 0.692974 0.691097 0.70558 0.699051 0.680729
          0.686572 0.682854 0.685493 0.702104 0.69716 0.693691
          0.699278 0.689181 0.707612 0.70017 0.689466 0.688651
          0.686782 0.698981 0.690099 0.68301 0.685756 0.684595
          0.703887 0.690242 0.675047 0.703496 0.135058 0.680844
          0.692158 0.692415 0.692082 0.696093 0.696504 0.708818
          0.696676 0.725816 0.683096 0.683298 0.706754 0.704164
          0.703886 0.693886 0.697301 0.700394 0.687958 0.705793
          0.696213 0.687679 0.68086 0.683264 0.696652 0.685159
          0.685092 0.687842 0.718605 0.700383 0.689538 0.698108
          0.693124 0.686235 0.135002 0.682155 0.687685 0.689783
          0.703832 0.694413 0.699627 0.693317 0.695878 0.71053
          0.702721 0.693948 0.700618 0.698446 0.685304 0.720595
          0.691523 0.696748 0.710271 0.693485 0.703704 0.684217
          0.695057 0.689545 0.686439 0.69641 0.685802 0.699612
          0.695508 0.696701 0.690059 0.681221 0.674502 0.69693
          0.134895 0.664432 0.690994 0.687501 0.679593 0.696285
          0.681834 0.698456 0.684881 0.693858 0.704611 0.699583
          0.701209 0.705054 0.699032 0.704311 0.689967 0.691294
          0.698012 0.696392 0.697508 0.713993 0.712692 0.719945
          0.713234 0.71839 0.720714 0.690501 0.707286 0.71338
          0.691134 0.699002 0.702952 0.709137 0.138615 0.675262
          0.701559 0.692162 0.68706 0.702147 0.70776 0.685625
          0.687419 0.687636 0.695907 0.687804 0.693596 0.701214
          0.693899 0.705126 0.697935 0.705401 0.705598 0.686301
          0.699205 0.705984 0.727529 0.707027 0.690733 0.720769
          0.687474 0.703496 0.718443 0.710831 0.710678 0.711362
          0.709896 0.712666 0.133365 0.678958 0.692879 0.701251
          0.709027 0.705897 0.706555 0.691991 0.686497 0.714169
          0.692282 0.687126 0.712725 0.698327 0.68679 0.700712
          0.692917 0.704234 0.708243 0.690259 0.701609 0.706852
          0.701997 0.709109 0.70344 0.702994 0.703809 0.706777
          0.706862 0.705832 0.718715 0.712291 0.712283 0.713268
          0.140277 0.668915 0.686719 0.705635 0.678578 0.689933
          0.692755 0.694358 0.690269 0.690367 0.71807 0.706716
          0.689538 0.703208 0.69594 0.708372 0.696679 0.699673
          0.709233 0.68782 0.708828 0.691807 0.69138 0.709669
          0.70611 0.684853 0.692013 0.697222 0.687581 0.69427
          0.694704 0.686601 0.703348 0.699788 0.140637 0.673982
          0.694238 0.688695 0.678784 0.693499 0.685306 0.690401
          0.696917 0.706636 0.700542 0.705978 0.695272 0.702342
          0.698203 0.703247 0.702875 0.694627 0.705614 0.723344
          0.703594 0.699753 0.693836 0.684505 0.684986 0.684728
          0.700792 0.698599 0.686836 0.70394 0.685306 0.69588
          0.685666 0.683244 0.138303 0.653514 0.683499 0.696285
          0.699299 0.694641 0.679461 0.686244 0.696449 0.688134
          0.687819 0.693532 0.696767 0.703756 0.716035 0.709759
          0.701061 0.706751 0.701954 0.712021 0.691071 0.708222
          0.693347 0.695998 0.71136 0.703107 0.705326 0.707076
          0.70325 0.697502 0.693175 0.685371 0.685875 0.686818
          0.133234 0.673596 0.689988 0.703881 0.700336 0.706112
          0.695812 0.694955 0.710769 0.703901 0.690013 0.712218
          0.687186 0.694574 0.686926 0.705589 0.691172 0.69886
          0.691516 0.713693 0.702554 0.685819 0.70234 0.6775
          0.686083 0.69842 0.684271 0.689756 0.699233 0.693094
          0.687203 0.676901 0.692219 0.680363 0.136483 0.652434
          0.683071 0.692162 0.708793 0.683575 0.687704 0.691378
          0.702265 0.697479 0.703409 0.694139 0.704333 0.692048
          0.688465 0.701951 0.687569 0.694235 0.692656 0.704973
          0.694559 0.698203 0.706308 0.708446 0.704328 0.706731
          0.715029 0.720643 0.712655 0.707657 0.695513 0.722868
          0.715024 0.710479 0.143589 0.693896 0.688475 0.701855
          0.696612 0.691722 0.693658 0.691394 0.695283 0.704956
          0.687217 0.707405 0.696261 0.694849 0.70273 0.701418
          0.701232 0.698336 0.71088 0.695863 0.706516 0.698197
          0.689335 0.703674 0.708773 0.703008 0.707996 0.689107
          0.680354 0.698321 0.6944 0.684609 0.690022 0.694865
          0.138494 0.685378 0.697961 0.698455 0.687089 0.699057
          0.695725 0.692814 0.703037 0.700797 0.7027 0.693086
          0.718391 0.700747 0.689237 0.705594 0.696392 0.710265
          0.691832 0.690515 0.69895 0.700306 0.690444 0.68318
          0.691711 0.684066 0.686188 0.690292 0.694617 0.699487
          0.713233 0.69778 0.68319 0.695225 0.136679 0.676181
          0.70014 0.707984 0.699461 0.697826 0.706328 0.69583
          0.708687 0.697884 0.69672 0.718947 0.694918 0.698545
          0.700575 0.696822 0.700736 0.706586 0.685752 0.708202
          0.697876 0.694775 0.699629 0.699406 0.697443 0.696558
          0.702232 0.694482 0.700604 0.699877 0.683877 0.697069
          0.688081 0.690281 0.132911 0.680841 0.714927 0.697297
          0.685215 0.698894 0.695003 0.712011 0.695105 0.701033
          0.705329 0.692071 0.699769 0.698507 0.688137 0.708662
          0.692882 0.702729 0.702169 0.699453 0.696334 0.706369
          0.70207 0.698561 0.713494 0.72352 0.705512 0.706761
          0.707951 0.708313 0.712585 0.710236 0.701276 0.720139
          0.132615 0.677891 0.691762 0.700262 0.692699 0.696856
          0.707047 0.685011 0.700224 0.710992 0.721788 0.697362
          0.690509 0.699645 0.703914 0.68829 0.700171 0.701816
          0.702786 0.696585 0.68435 0.688704 0.699069 0.686446
          0.680727 0.700058 0.691317 0.687157 0.684005 0.686259
          0.693476 0.696397 0.683997 0.688862 0.125763 0.687406
          0.693999 0.690959 0.696235 0.711204 0.702677 0.701175
          0.694137 0.701116 0.69695 0.692681 0.703692 0.701431
          0.688003 0.698237 0.699307 0.702002 0.700746 0.689614
          0.705239 0.70177 0.703115 0.713676 0.705913 0.709022
          0.708802 0.694913 0.712116 0.714839 0.697057 0.705158
          0.71581 0.703056 0.134909 0.650556 0.689286 0.690679
          0.69383 0.690291 0.695115 0.703716 0.699447 0.694668
          0.688666 0.696662 0.680143 0.708669 0.698924 0.698578
          0.697672 0.715507 0.702037 0.703281 0.704189 0.703928
          0.711107 0.707372 0.719568 0.710642 0.714785 0.726263
          0.72925 0.712069 0.693513 0.73321 0.708459 0.710804
          0.136833 0.657109 0.682267 0.684417 0.686151 0.697047
          0.696785 0.69023 0.687193 0.70626 0.719655 0.696633
          0.683495 0.698882 0.703756 0.706283 0.696437 0.71142
          0.694148 0.702593 0.708051 0.706931 0.71172 0.706928
          0.706783 0.715815 0.713793 0.708439 0.698531 0.717156
          0.701875 0.714126 0.71302 0.715894 0.132776 0.666968
          0.685417 0.690249 0.69072 0.680072 0.696043 0.685932
          0.701315 0.713585 0.695318 0.698901 0.702729 0.704471
          0.694627 0.696956 0.706044 0.709106 0.702389 0.690412
          0.713673 0.710723 0.714646 0.703392 0.691641 0.694208
          0.694729 0.705755 0.712586 0.710633 0.701274 0.715203
          0.720183 0.713559 0.145103 0.698392 0.699156 0.68251
          0.693 0.704334 0.700514 0.690687 0.702859 0.703526
          0.699131 0.674302 0.692351 0.707969 0.68236 0.708774
          0.701645 0.703581 0.710225 0.705668 0.702477 0.704112
          0.716415 0.706892 0.690541 0.711613 0.707203 0.718259
          0.707645 0.711004 0.722288 0.713281 0.697403 0.721472
          0.129901 0.666971 0.68632 0.699147 0.694607 0.693234
          0.706779 0.689268 0.686412 0.684995 0.710097 0.70489
          0.707533 0.701012 0.692131 0.70913 0.695468 0.700914
          0.705996 0.697394 0.694077 0.68857 0.682237 0.700024
          0.700532 0.687703 0.694201 0.69222 0.684493 0.698963
          0.69139 0.694978 0.696395 0.697651 0.1426 0.67524
          0.697956 0.701219 0.688996 0.697505 0.696484 0.703841
          0.699359 0.707981 0.694761 0.699917 0.702995 0.683714
          0.714405 0.702582 0.69902 0.699059 0.697555 0.709355
          0.695466 0.697063 0.69735 0.694404 0.689862 0.700307
          0.702881 0.709208 0.701749 0.681542 0.692474 0.689277
          0.691206 0.685451 0.142209 0.670341 0.700554 0.684795
          0.679046 0.689643 0.678476 0.701438 0.702327 0.698996
          0.681203 0.69129 0.690046 0.702866 0.711736 0.703093
          0.690208 0.695072 0.693234 0.70503 0.698112 0.686357
          0.694168 0.684961 0.695914 0.699316 0.686932 0.699226
          0.702858 0.708585 0.685149 0.695812 0.701796 0.709058
          0.136341 0.655681 0.687288 0.698081 0.694296 0.677356
          0.69535 0.695905 0.695888 0.678034 0.691873 0.704815
          0.696376 0.700547 0.708015 0.708915 0.68681 0.689893
          0.712505 0.703066 0.696042 0.728015 0.711305 0.718565
          0.724214 0.723352 0.708671 0.698246 0.70717 0.704111
          0.697727 0.709079 0.718574 0.693545 0.136631 0.65203
          0.688558 0.705434 0.69543 0.679494 0.675353 0.691338
          0.701164 0.686481 0.705215 0.706424 0.697942 0.710981
          0.704589 0.704358 0.698121 0.698477 0.704041 0.704468
          0.693743 0.703762 0.697707 0.692846 0.705779 0.674253
          0.696397 0.698478 0.690995 0.685101 0.695 0.70781
          0.693829 0.701964 0.143925 0.680898 0.700724 0.682182
          0.685759 0.685926 0.705834 0.687601 0.675265 0.704438
          0.719118 0.68759 0.70866 0.696302 0.684915 0.703926
          0.700851 0.70081 0.703943 0.704705 0.705769 0.688439
          0.697043 0.699428 0.674878 0.69005 0.70033 0.687993
          0.67726 0.696624 0.685582 0.691867 0.702905 0.685621
          0.133143 0.702081 0.709318 0.725238 0.682098 0.699838
          0.701828 0.708337 0.701977 0.710015 0.690315 0.690676
          0.702733 0.701075 0.681407 0.694441 0.69822 0.711667
          0.701144 0.692222 0.695467 0.697734 0.704503 0.704857
          0.717966 0.709228 0.716168 0.708241 0.705652 0.709912
          0.720448 0.709476 0.716278 0.724468 0.143987 0.687408
          0.700106 0.700104 0.701283 0.690511 0.701896 0.690049
          0.695208 0.707999 0.694285 0.683732 0.699342 0.694394
          0.680824 0.697643 0.709692 0.700788 0.701251 0.699796
          0.702858 0.704118 0.710316 0.69908 0.714772 0.695183
          0.694516 0.707069 0.711347 0.705902 0.725547 0.710287
          0.723001 0.70048 0.137223 0.647573 0.695166 0.692948
          0.685446 0.68203 0.687192 0.687339 0.696867 0.69737
          0.70072 0.692203 0.713772 0.693562 0.705235 0.703675
          0.696338 0.705503 0.694896 0.696501 0.69619 0.691832
          0.689516 0.697352 0.69744 0.704948 0.698126 0.708242
          0.69913 0.7052 0.688564 0.715326 0.698515 0.696818
          0.143869 0.694423 0.711489 0.696265 0.70018 0.701755
          0.708116 0.695593 0.702429 0.679417 0.703394 0.706892
          0.703856 0.701931 0.698054 0.698128 0.694536 0.698684
          0.69797 0.709728 0.698297 0.7128 0.69843 0.703906
          0.707818 0.701932 0.696955 0.698175 0.711065 0.701826
          0.703363 0.704291 0.720573 0.704172 0.140357 0.660041
          0.681614 0.69034 0.685507 0.683536 0.690025 0.693404
          0.707266 0.710228 0.704168 0.703088 0.701904 0.702553
          0.704285 0.689772 0.709922 0.70027 0.704352 0.699103
          0.696106 0.702548 0.681241 0.686663 0.699136 0.683801
          0.689519 0.686105 0.693387 0.689641 0.690346 0.686681
          0.687924 0.700013 0.136653 0.680118 0.69636 0.69983
          0.702974 0.706099 0.692514 0.692415 0.692371 0.68887
          0.72106 0.703635 0.689307 0.699912 0.709882 0.691519
          0.70905 0.701241 0.688681 0.69833 0.690022 0.696583
          0.691319 0.691549 0.700524 0.699977 0.700268 0.694438
          0.683656 0.693302 0.676704 0.681054 0.693358 0.681488
          0.138577 0.694438 0.700073 0.689637 0.70211 0.698579
          0.69636 0.695577 0.698574 0.704188 0.700377 0.704707
          0.695605 0.696536 0.695381 0.687518 0.693415 0.692931
          0.708148 0.694129 0.700826 0.688705 0.688825 0.697927
          0.695787 0.692303 0.688118 0.698553 0.67651 0.686687
          0.685081 0.684054 0.691009 0.695553 0.147331 0.699022
          0.702731 0.695233 0.703055 0.715471 0.680092 0.706546
          0.700412 0.693034 0.714105 0.702391 0.707986 0.713472
          0.697664 0.711153 0.695896 0.704149 0.699769 0.712324
          0.689513 0.690621 0.688975 0.681074 0.68306 0.703541
          0.675771 0.682425 0.694894 0.682093 0.70319 0.681912
          0.690793 0.703855 0.127564 0.663847 0.690348 0.698817
          0.682087 0.688021 0.681866 0.703727 0.695381 0.683215
          0.69537 0.720258 0.703484 0.699844 0.701991 0.699116
          0.698053 0.696149 0.700521 0.709514 0.695824 0.720825
          0.720604 0.70637 0.716921 0.700349 0.714317 0.717249
          0.713928 0.707062 0.698552 0.729606 0.708814 0.701239
          0.139838 0.667045 0.684901 0.685071 0.682056 0.680907
          0.68336 0.708987 0.696364 0.694632 0.69036 0.711038
          0.691619 0.711445 0.702578 0.697317 0.694765 0.695069
          0.704932 0.699129 0.70413 0.690847 0.682859 0.672013
          0.693691 0.692222 0.691139 0.696471 0.692432 0.688565
          0.69027 0.686225 0.693198 0.691233 0.134602 0.673213
          0.693314 0.694317 0.69815 0.683196 0.694475 0.692172
          0.687001 0.697557 0.703077 0.698884 0.693529 0.692513
          0.693227 0.697239 0.694557 0.695039 0.703866 0.689995
          0.709025 0.716669 0.714544 0.70688 0.726403 0.712884
          0.699904 0.697143 0.699076 0.709098 0.730518 0.72076
          0.700428 0.721506 0.140616 0.651627 0.689377 0.706619
          0.699553 0.697869 0.696042 0.713657 0.71194 0.697999
          0.706454 0.704492 0.699593 0.708138 0.705761 0.695237
          0.691996 0.709249 0.699025 0.700419 0.692822 0.697029
          0.702224 0.710962 0.704567 0.700183 0.695862 0.697757
          0.693829 0.704054 0.677037 0.677952 0.687301 0.68349
          0.14761 0.679079 0.700617 0.700052 0.689594 0.700966
          0.697573 0.697134 0.704394 0.692664 0.700745 0.706182
          0.710039 0.708842 0.70028 0.712743 0.686416 0.696447
          0.702096 0.691469 0.708517 0.685723 0.706288 0.691572
          0.698941 0.683404 0.703469 0.678268 0.682532 0.691191
          0.69915 0.684998 0.708156 0.686249 0.145471 0.667475
          0.706136 0.700922 0.688691 0.700726 0.694052 0.705803
          0.698638 0.71225 0.695204 0.7069 0.691553 0.695117
          0.713584 0.693435 0.707404 0.709708 0.704905 0.714519
          0.707712 0.68954 0.691587 0.693662 0.700975 0.693652
          0.709922 0.69208 0.69302 0.710418 0.67907 0.702997
          0.692087 0.688153 0.142077 0.678366 0.707657 0.701735
          0.686462 0.694559 0.698041 0.691288 0.687274 0.694611
          0.695224 0.679889 0.709353 0.702853 0.692716 0.69231
          0.701083 0.705349 0.701572 0.69421 0.70559 0.694056
          0.696567 0.707865 0.705784 0.701742 0.709562 0.705766
          0.714765 0.707414 0.7017 0.687873 0.71706 0.72369
          0.142009 0.672978 0.683105 0.681163 0.681194 0.693477
          0.69261 0.687736 0.700793 0.69342 0.712701 0.709693
          0.694446 0.712591 0.682861 0.702273 0.6939 0.702085
          0.698358 0.687018 0.698818 0.691338 0.684822 0.685371
          0.681507 0.693247 0.696129 0.684605 0.696172 0.689547
          0.687615 0.692231 0.695459 0.683045 0.147034 0.697683
          0.695642 0.703195 0.694102 0.693493 0.70847 0.699025
          0.707894 0.697352 0.710334 0.676454 0.719335 0.714195
          0.686864 0.700991 0.704846 0.71362 0.692169 0.697176
          0.689935 0.693818 0.676271 0.687053 0.69852 0.693622
          0.680423 0.690976 0.684583 0.691231 0.695584 0.691648
          0.697702 0.712323 0.138348 0.663298 0.704367 0.696642
          0.692705 0.693699 0.689068 0.698218 0.709177 0.684054
          0.707266 0.705259 0.699032 0.708103 0.693212 0.719127
          0.684414 0.68942 0.708193 0.708627 0.697702 0.691591
          0.710485 0.699188 0.712127 0.686753 0.698229 0.70374
          0.700224 0.705516 0.692014 0.699343 0.703354 0.696231
          0.138123 0.6823 0.698655 0.695279 0.688645 0.702538
          0.711449 0.711148 0.700801 0.710913 0.692422 0.708145
          0.693146 0.705914 0.710196 0.704493 0.693982 0.70306
          0.709874 0.686311 0.701834 0.710734 0.704224 0.70926
          0.70825 0.712554 0.698833 0.698338 0.708924 0.699745
          0.696205 0.713401 0.714983 0.715287 0.127619 0.655096
          0.685428 0.693769 0.697364 0.693007 0.685112 0.683323
          0.691324 0.710558 0.699106 0.707782 0.69143 0.697955
          0.703443 0.699666 0.714574 0.689834 0.702745 0.693569
          0.709049 0.711412 0.715942 0.71001 0.710209 0.705244
          0.699225 0.703081 0.699655 0.705938 0.704294 0.714051
          0.71243 0.712228 0.138402 0.65482 0.697233 0.694185
          0.687506 0.701398 0.698059 0.704191 0.687528 0.683116
          0.687206 0.694954 0.699857 0.702418 0.702632 0.694301
          0.693562 0.687853 0.70315 0.695381 0.705408 0.713998
          0.727305 0.711059 0.711887 0.714231 0.700915 0.714387
          0.703029 0.716074 0.697951 0.701376 0.710351 0.706391
          0.136341 0.677815 0.693891 0.693238 0.715616 0.69821
          0.697431 0.692209 0.693796 0.699941 0.69791 0.696118
          0.702274 0.698942 0.699133 0.696749 0.688918 0.706622
          0.703189 0.696061 0.70538 0.711356 0.701878 0.698496
          0.705768 0.707683 0.709056 0.729097 0.694137 0.70253
          0.701827 0.71316 0.721104 0.708832 0.136156 0.669524
          0.689266 0.71031 0.693714 0.695929 0.699261 0.698941
          0.70628 0.703735 0.687209 0.701799 0.701605 0.704283
          0.68628 0.686274 0.690333 0.699228 0.697956 0.700738
          0.720895 0.705213 0.699693 0.704492 0.71044 0.712986
          0.699834 0.707896 0.708543 0.708985 0.690082 0.697836
          0.71332 0.705002 0.14761 0.673058 0.683916 0.674285
          0.682238 0.695858 0.690785 0.690744 0.70097 0.698097
          0.707745 0.683456 0.713234 0.697628 0.681276 0.703981
          0.693318 0.694051 0.70228 0.697914 0.703477 0.697506
          0.709385 0.704102 0.697226 0.697119 0.700688 0.707667
          0.702767 0.684088 0.720786 0.69856 0.700314 0.717778
          0.13482 0.681804 0.700433 0.704177 0.691889 0.706041
          0.694589 0.720134 0.692846 0.690051 0.694698 0.716828
          0.694054 0.723636 0.699267 0.694525 0.699674 0.69999
          0.702065 0.69814 0.702746 0.706302 0.702784 0.696541
          0.717733 0.698777 0.71987 0.71591 0.694728 0.709352
          0.69075 0.709735 0.711367 0.694128 0.147194 0.662374
          0.685525 0.69041 0.69204 0.706384 0.697796 0.679628
          0.702169 0.688246 0.692195 0.704575 0.697136 0.707771
          0.689407 0.695291 0.7133 0.677518 0.707524 0.703077
          0.696915 0.70257 0.721474 0.693413 0.696388 0.708265
          0.7175 0.703366 0.717411 0.69884 0.705437 0.700718
          0.706024 0.710479 0.145583 0.681918 0.696526 0.697769
          0.680707 0.72018 0.705925 0.702857 0.691853 0.708351
          0.70364 0.7263 0.700683 0.691645 0.68945 0.704484
          0.699287 0.702544 0.699306 0.709509 0.684234 0.700657
          0.721966 0.700018 0.698785 0.707806 0.698152 0.703338
          0.709446 0.711493 0.711259 0.718911 0.721562 0.725636
          0.136412 0.65732 0.702421 0.688842 0.699958 0.682926
          0.686938 0.703822 0.719729 0.703923 0.696607 0.698901
          0.69236 0.699975 0.692695 0.702933 0.692889 0.690637
          0.698691 0.704327 0.684876 0.703649 0.702056 0.713101
          0.707255 0.69917 0.691287 0.697043 0.704545 0.710775
          0.674335 0.698504 0.701033 0.691119 0.144124 0.668047
          0.709979 0.696743 0.712696 0.719213 0.696565 0.699577