<?xml version="1.0"?>
<VTKFile type="PolyData" version="0.1" byte_order="LittleEndian" header_type="UInt32" compressor="vtkZLibDataCompressor">
  <PolyData>
    <Piece NumberOfPoints="7920" NumberOfVerts="0" NumberOfLines="0" NumberOfStrips="0" NumberOfPolys="0">
      <PointData Scalars="Calcium Concentration">
        <DataArray type="Float32" Name="Calcium Concentration" format="ascii" RangeMin="0.4646880030632019" RangeMax="0.7379189729690552">
          0.486626 0.699565 0.702268 0.691492 0.700116 0.693208
          0.690245 0.709092 0.69468 0.694226 0.695759 0.707889
          0.705269 0.711612 0.693584 0.699364 0.69159 0.701695
          0.715738 0.69673 0.696529 0.675661 0.690181 0.690406
          0.683653 0.698506 0.691397 0.693243 0.692625 0.685428
          0.706851 0.687814 0.688632 0.493834 0.692124 0.698576
          0.694922 0.70046 0.698749 0.696389 0.699491 0.720001
          0.698203 0.697255 0.708728 0.69421 0.707537 0.704138
          0.695066 0.696406 0.701327 0.701068 0.701444 0.69434
          0.694419 0.690143 0.678129 0.671487 0.70406 0.703097
          0.685728 0.681686 0.700074 0.701099 0.680749 0.690395
          0.488562 0.683003 0.689558 0.675042 0.685614 0.681315
          0.695061 0.694438 0.697844 0.703146 0.689333 0.702842
          0.711754 0.705182 0.708589 0.706096 0.709427 0.718008
          0.722289 0.701563 0.719192 0.712555 0.714862 0.713157
          0.710871 0.712737 0.705947 0.703306 0.714898 0.705738
          0.705366 0.70893 0.708723 0.486325 0.693505 0.715471
          0.68931 0.699737 0.693415 0.708329 0.688241 0.710459
          0.706758 0.692947 0.697417 0.691683 0.704993 0.698882
          0.697485 0.695976 0.695028 0.706909 0.702544 0.70566
          0.693242 0.695785 0.696742 0.689116 0.715706 0.703612
          0.700481 0.708616 0.698797 0.699117 0.700292 0.698692
          0.488684 0.683731 0.688626 0.697614 0.684405 0.689624
          0.68873 0.68236 0.703018 0.697812 0.702718 0.69685
          0.701123 0.70663 0.687513 0.704304 0.702833 0.702741
          0.709489 0.693545 0.694167 0.69214 0.692698 0.683049
          0.687833 0.688247 0.686043 0.691874 0.685893 0.693689
          0.686712 0.697734 0.703464 0.508505 0.701187 0.6926
          0.688123 0.684467 0.711511 0.696056 0.69758 0.702297
          0.695469 0.686056 0.702236 0.708968 0.70991 0.701686
          0.702213 0.699182 0.688882 0.717554 0.70337 0.698053
          0.701269 0.699048 0.690323 0.705764 0.723559 0.713813
          0.701281 0.701716 0.709421 0.716696 0.706591 0.704522
          0.492197 0.681752 0.690734 0.686004 0.679482 0.689624
          0.680367 0.691979 0.711298 0.708978 0.686524 0.703658
          0.697472 0.710598 0.694665 0.701919 0.706469 0.700131
          0.709834 0.698918 0.709145 0.701126 0.693982 0.695485
          0.697625 0.719283 0.71454 0.71378 0.714276 0.701926
          0.721199 0.714718 0.715242 0.478809 0.687505 0.677844
          0.690153 0.683819 0.698786 0.680366 0.665431 0.701018
          0.692824 0.7179 0.710688 0.703027 0.709188 0.694303
          0.698209 0.701007 0.711531 0.712044 0.691219 0.68762
          0.685882 0.691539 0.679574 0.697222 0.699101 0.697743
          0.688359 0.689805 0.677611 0.709585 0.682111 0.680545
          0.474481 0.685648 0.688297 0.69243 0.678275 0.68851
          0.684139 0.700468 0.706747 0.698311 0.706259 0.70893
          0.707286 0.718061 0.701475 0.701816 0.708735 0.690679
          0.712414 0.684716 0.706264 0.699184 0.704663 0.703711
          0.711435 0.721467 0.706245 0.70533 0.701638 0.699164
          0.715133 0.712181 0.712919 0.499855 0.701597 0.699502
          0.698122 0.692285 0.698638 0.706527 0.698189 0.711014
          0.692871 0.717672 0.690127 0.690873 0.712989 0.696172
          0.695363 0.695808 0.707736 0.708432 0.710248 0.702534
          0.698764 0.690975 0.69704 0.715509 0.716806 0.703689
          0.710542 0.708389 0.69929 0.70398 0.690446 0.710117
          0.500061 0.702324 0.703578 0.698452 0.688086 0.712195
          0.696656 0.695527 0.700842 0.699007 0.70735 0.701665
          0.706166 0.70044 0.690688 0.705086 0.696983 0.706989
          0.699803 0.696442 0.701037 0.706579 0.71028 0.704473
          0.695076 0.718369 0.718522 0.699504 0.703427 0.703427
          0.720382 0.706857 0.718204 0.479909 0.683956 0.691931
          0.695963 0.668955 0.690299 0.693446 0.699997 0.696306
          0.692844 0.693748 0.703898 0.710026 0.704197 0.693734
          0.696905 0.707296 0.702245 0.70994 0.711767 0.693616
          0.697779 0.696377 0.68042 0.671571 0.694578 0.69205
          0.692033 0.68262 0.685698 0.69093 0.691001 0.702081
          0.492437 0.696794 0.687266 0.704728 0.687714 0.703704
          0.706059 0.701087 0.698314 0.688967 0.698343 0.700904
          0.703308 0.704775 0.707895 0.69588 0.69649 0.707859
          0.689941 0.702437 0.690914 0.690578 0.700717 0.682391
          0.696511 0.694523 0.680578 0.687493 0.7096 0.689677
          0.700335 0.692182 0.697971 0.498547 0.684755 0.682703
          0.693503 0.705793 0.692981 0.699911 0.69531 0.684857
          0.690024 0.70562 0.709791 0.702824 0.700327 0.712187
          0.699218 0.68769 0.702271 0.719111 0.690732 0.700739
          0.698422 0.676898 0.68466 0.689041 0.694624 0.683006
          0.69283 0.705238 0.690235 0.689367 0.690052 0.689753
          0.481917 0.682802 0.690814 0.69073 0.693562 0.683726
          0.68831 0.695252 0.683058 0.694446 0.691075 0.690769
          0.697786 0.711587 0.703944 0.684661 0.708749 0.701221
          0.692444 0.693798 0.713709 0.71341 0.71305 0.702155
          0.698696 0.709321 0.717905 0.707974 0.712349 0.717499
          0.708877 0.720823 0.718848 0.476326 0.691388 0.688419
          0.684156 0.705299 0.7129 0.698089 0.693594 0.689798
          0.698499 0.689599 0.700577 0.697739 0.711591 0.69256
          0.702114 0.688011 0.707615 0.693552 0.703899 0.692327
          0.677396 0.694938 0.685397 0.693249 0.689596 0.693368
          0.691093 0.693355 0.687419 0.689953 0.683685 0.690927
          0.49635 0.678582 0.690264 0.68655 0.689045 0.692811
          0.689687 0.696839 0.687211 0.689977 0.697556 0.711703
          0.70203 0.712254 0.712169 0.702016 0.696879 0.70354
          0.697955 0.687725 0.684653 0.691607 0.699271 0.697524
          0.700798 0.68326 0.698751 0.69023 0.693979 0.705348
          0.703506 0.693757 0.687389 0.47458 0.691816 0.675105
          0.673732 0.677606 0.688403 0.686383 0.710464 0.707184
          0.688114 0.704 0.702561 0.697506 0.715461 0.700472
          0.710886 0.690858 0.702025 0.707315 0.693119 0.696267
          0.711087 0.71054 0.702678 0.711701 0.721662 0.696762
          0.70472 0.706384 0.703364 0.71074 0.706365 0.711022
          0.479363 0.685713 0.688529 0.682849 0.685062 0.678912
          0.678703 0.694481 0.684179 0.696671 0.694062 0.705433
          0.713818 0.69595 0.697594 0.695866 0.691221 0.705346
          0.702769 0.69817 0.691982 0.688707 0.679369 0.689862
          0.688333 0.703351 0.687873 0.684816 0.696722 0.689646
          0.702221 0.692024 0.705462 0.492842 0.696777 0.699768
          0.703629 0.707919 0.681904 0.714941 0.703253 0.69704
          0.698826 0.709 0.707856 0.701875 0.70432 0.694118
          0.694162 0.686564 0.682751 0.7099 0.697568 0.689784
          0.691738 0.691955 0.684822 0.694377 0.687595 0.696156
          0.691374 0.689485 0.68276 0.694486 0.685546 0.678161
          0.493152 0.714748 0.698953 0.698729 0.706876 0.693013
          0.697669 0.707442 0.69266 0.698159 0.715567 0.700271
          0.699207 0.716505 0.685182 0.700071 0.701131 0.692677
          0.707838 0.694963 0.692896 0.691664 0.6731 0.697612
          0.698779 0.70439 0.681122 0.687045 0.694199 0.698662
          0.696189 0.680805 0.701515 0.502248 0.681789 0.696352
          0.68629 0.693797 0.702988 0.713647 0.689705 0.698719
          0.709639 0.698893 0.695119 0.705379 0.696603 0.71291
          0.696956 0.692796 0.698952 0.699078 0.699113 0.705484
          0.697223 0.719926 0.703684 0.694707 0.724039 0.708997
          0.700456 0.706694 0.712559 0.718648 0.704546 0.706064
          0.485546 0.713985 0.687189 0.718916 0.697378 0.699077
          0.708999 0.698331 0.692557 0.692529 0.708295 0.699045
          0.693052 0.720948 0.683468 0.711359 0.688737 0.703674
          0.708895 0.691813 0.71428 0.713209 0.709572 0.716167
          0.708757 0.711958 0.69609 0.70596 0.70452 0.709191
          0.722551 0.706162 0.719051 0.501039 0.712467 0.69256
          0.701948 0.703609 0.675652 0.698748 0.712816 0.695975
          0.69359 0.700984 0.682295 0.693735 0.714602 0.697547
          0.698468 0.699965 0.716362 0.686366 0.690469 0.709094
          0.703717 0.714963 0.707836 0.71911 0.723808 0.713767
          0.719747 0.720276 0.704451 0.710174 0.698944 0.700295
          0.48261 0.69194 0.702418 0.709747 0.707359 0.680257
          0.705798 0.705226 0.698308 0.7152 0.703204 0.701018
          0.694497 0.70052 0.706905 0.688906 0.699681 0.704698
          0.713605 0.701608 0.690218 0.692012 0.685383 0.701419
          0.690592 0.696398 0.682376 0.69156 0.696589 0.706741
          0.689434 0.681849 0.692156 0.490626 0.688672 0.700906
          0.690458 0.693213 0.695791 0.704932 0.700517 0.695607
          0.703287 0.696355 0.69166 0.706155 0.687452 0.705802
          0.700776 0.688825 0.701504 0.703105 0.697179 0.701815
          0.683881 0.684559 0.691702 0.68987 0.689338 0.698243
          0.691904 0.704979 0.710115 0.686027 0.694337 0.697416
          0.493877 0.703088 0.69445 0.691489 0.698408 0.710658
          0.696122 0.699265 0.700144 0.702818 0.695269 0.70027
          0.704846 0.722787 0.683656 0.700187 0.70054 0.696543
          0.702155 0.696335 0.693712 0.689198 0.679509 0.68806
          0.700409 0.690343 0.690599 0.688912 0.680964 0.683796
          0.694641 0.681702 0.689361 0.48814 0.700815 0.681819
          0.689354 0.697123 0.705931 0.693116 0.697454 0.700333
          0.694939 0.699731 0.691521 0.701395 0.691046 0.702382
          0.703028 0.700284 0.691005 0.718357 0.694748 0.694042
          0.691131 0.683151 0.685785 0.689599 0.687537 0.684431
          0.689668 0.688559 0.696499 0.691026 0.694766 0.684511
          0.48951 0.705757 0.695709 0.713925 0.702277 0.699898
          0.705976 0.703168 0.679527 0.713979 0.688892 0.68514
          0.714424 0.692352 0.711513 0.698267 0.696769 0.711797
          0.709699 0.706128 0.694496 0.686345 0.677654 0.696462
          0.679867 0.689253 0.686785 0.691195 0.701963 0.685305
          0.682881 0.700256 0.692477 0.495153 0.701842 0.691742
          0.695671 0.708814 0.696642 0.710693 0.687022 0.710501
          0.706122 0.70498 0.693703 0.694636 0.726698 0.686284
          0.70184 0.694079 0.691256 0.712002 0.687684 0.682762
          0.698803 0.683133 0.699287 0.690519 0.706358 0.69553
          0.699755 0.705467 0.704931 0.700877 0.682504 0.679198
          0.490107 0.690743 0.700202 0.689967 0.683332 0.68605
          0.694648 0.702406 0.675776 0.703546 0.695099 0.693551
          0.696074 0.696083 0.697022 0.699498 0.701823 0.704947
          0.697134 0.704046 0.698708 0.71393 0.7126 0.710143
          0.712752 0.70343 0.717171 0.69959 0.702132 0.712105
          0.69532 0.717207 0.702691 0.480388 0.679472 0.689403
          0.687734 0.69245 0.695571 0.704559 0.697495 0.681282
          0.687932 0.695572 0.708424 0.702745 0.705324 0.707553
          0.698598 0.690985 0.696295 0.698507 0.707706 0.713778
          0.729654 0.698596 0.694573 0.708315 0.716395 0.700344
          0.704714 0.702318 0.716335 0.723395 0.70968 0.71631
          0.495796 0.708609 0.683918 0.696627 0.710239 0.699368
          0.717867 0.680086 0.700845 0.705256 0.71657 0.683777
          0.706305 0.714986 0.696615 0.693741 0.696138 0.690261
          0.710734 0.68973 0.702428 0.705911 0.712528 0.699668
          0.697182 0.715576 0.708167 0.713729 0.701586 0.71215
          0.720791 0.718448 0.717468 0.471245 0.679668 0.679651
          0.697062 0.678601 0.690674 0.698365 0.695918 0.692818
          0.707071 0.699738 0.698024 0.70052 0.711042 0.692614
          0.69046 0.692424 0.701991 0.70923 0.696969 0.692035
          0.698377 0.693513 0.703871 0.699579 0.692972 0.689959
          0.696799 0.685447 0.685213 0.693206 0.692084 0.694659
          0.503488 0.692666 0.701443 0.67894 0.673796 0.699177
          0.693141 0.68171 0.706106 0.702708 0.696681 0.701445
          0.707731 0.695341 0.705408 0.700207 0.706107 0.706268
          0.698072 0.705658 0.701891 0.69388 0.686704 0.702914
          0.684106 0.685307 0.703215 0.693963 0.693824 0.6933
          0.689948 0.697304 0.690812 0.480922 0.674728 0.698591
          0.695288 0.684194 0.687305 0.691318 0.703456 0.700169
          0.70334 0.683518 0.694582 0.694352 0.686153 0.691359
          0.699962 0.699243 0.701528 0.702457 0.692799 0.69787
          0.702323 0.69552 0.71316 0.705218 0.695553 0.699343
          0.699056 0.695938 0.706399 0.700433 0.676259 0.694771
          0.478538 0.686826 0.697305 0.702258 0.696269 0.700151
          0.704776 0.702789 0.692471 0.699406 0.690539 0.715109
          0.699094 0.69402 0.702147 0.700283 0.703574 0.697215
          0.700627 0.710854 0.695798 0.694356 0.707184 0.679556
          0.701199 0.697059 0.682575 0.691055 0.697626 0.698836
          0.685302 0.689931 0.682706 0.471675 0.66129 0.697227
          0.683629 0.689268 0.695004 0.684258 0.689035 0.698013
          0.698142 0.692647 0.704168 0.703822 0.688373 0.697287
          0.714739 0.704491 0.695128 0.69776 0.689614 0.702607
          0.697858 0.718594 0.706572 0.701388 0.706255 0.721033
          0.71307 0.711451 0.708221 0.707285 0.710879 0.721131
          0.498078 0.705595 0.699832 0.709078 0.691842 0.700083
          0.702923 0.696798 0.70346 0.697312 0.685068 0.701831
          0.708774 0.696461 0.688833 0.7015 0.693986 0.69964
          0.699583 0.702419 0.705798 0.696371 0.695301 0.703697
          0.703042 0.687245 0.705153 0.692668 0.691002 0.701744
          0.691355 0.693129 0.67851 0.485117 0.701228 0.69608
          0.718229 0.697086 0.700676 0.700587 0.698559 0.714564
          0.703693 0.706078 0.682161 0.706881 0.701135 0.712835
          0.701442 0.68857 0.695694 0.706254 0.688966 0.696834
          0.708742 0.693658 0.694233 0.693863 0.705318 0.677429
          0.678903 0.69096 0.696303 0.714211 0.69718 0.685517
          0.484573 0.689205 0.701121 0.695997 0.697952 0.687558
          0.694569 0.695586 0.709577 0.703184 0.688699 0.698894
          0.717101 0.691675 0.691232 0.702045 0.698498 0.695737
          0.691546 0.714798 0.697644 0.694071 0.700797 0.709162
          0.683877 0.679765 0.698243 0.701285 0.698067 0.694905
          0.691469 0.691311 0.693631 0.500135 0.720305 0.706353
          0.691615 0.685833 0.705863 0.70538 0.697106 0.690696
          0.704034 0.707192 0.683516 0.702653 0.712006 0.682081
          0.699545 0.689535 0.688836 0.697175 0.702416 0.710412
          0.704926 0.706563 0.708444 0.697389 0.72628 0.709042
          0.702902 0.710499 0.716577 0.702297 0.700498 0.698749
          0.481708 0.69771 0.696569 0.696782 0.705948 0.687586
          0.702672 0.701886 0.701842 0.681943 0.70051 0.701928
          0.689073 0.717488 0.70036 0.685785 0.702086 0.698691
          0.71488 0.68959 0.692651 0.693825 0.691442 0.694986
          0.688601 0.709574 0.693633 0.692775 0.684948 0.703254
          0.697207 0.695301 0.68847 0.49014 0.703924 0.719608
          0.703676 0.686876 0.686605 0.696535 0.711291 0.699796
          0.694183 0.706352 0.692801 0.697664 0.703915 0.695788
          0.694774 0.696099 0.70321 0.712051 0.702749 0.709333
          0.696843 0.70351 0.700941 0.705627 0.725422 0.709323
          0.717603 0.703564 0.712155 0.706088 0.701553 0.719451
          0.479537 0.662718 0.69777 0.704665 0.695994 0.699052
          0.682471 0.700892 0.707086 0.701871 0.675742 0.691473
          0.675514 0.684692 0.695386 0.693266 0.699684 0.702555
          0.703399 0.687429 0.72196 0.696465 0.715734 0.730608
          0.704377 0.709742 0.708456 0.718486 0.72232 0.714277
          0.709389 0.718374 0.721668 0.482014 0.679831 0.678743
          0.680875 0.685299 0.690115 0.697749 0.692784 0.690199
          0.703449 0.695474 0.695412 0.711257 0.687596 0.70322
          0.702119 0.703807 0.706393 0.697006 0.688387 0.709627
          0.706972 0.711437 0.694777 0.703723 0.714875 0.711084
          0.705208 0.706129 0.715038 0.702397 0.715722 0.713705
          0.471529 0.686237 0.677129 0.687642 0.693678 0.688554
          0.696904 0.688082 0.696564 0.71724 0.695021 0.69255
          0.700202 0.714035 0.700921 0.70937 0.684537 0.704149
          0.718393 0.697548 0.721428 0.718139 0.72434 0.706768
          0.687414 0.70558 0.705238 0.703571 0.715389 0.710168
          0.703174 0.712515 0.705712 0.507135 0.712456 0.706257
          0.712898 0.705469 0.720187 0.694581 0.693567 0.711376
          0.691795 0.710183 0.691536 0.707449 0.716979 0.694343
          0.702987 0.677726 0.687872 0.69081 0.69423 0.702291
          0.701446 0.705466 0.702461 0.695387 0.711314 0.705591
          0.708968 0.706827 0.712086 0.710729 0.707408 0.696332
          0.471405 0.678177 0.693818 0.687369 0.689155 0.684219
          0.696368 0.681886 0.679527 0.68645 0.695132 0.682968
          0.703935 0.705911 0.716758 0.70177 0.692669 0.696201
          0.70474 0.711874 0.684243 0.698942 0.687998 0.694679
          0.700273 0.701234 0.684334 0.683093 0.689767 0.697001
          0.698554 0.69248 0.691403 0.499582 0.689966 0.699545
          0.698871 0.692211 0.709168 0.696296 0.693503 0.694612
          0.712404 0.707039 0.692271 0.710785 0.681663 0.704724
          0.690793 0.700454 0.704133 0.709902 0.709878 0.695664
          0.699677 0.693525 0.689421 0.701269 0.694698 0.707825
          0.707614 0.6991 0.68657 0.707244 0.702808 0.699457
          0.497901 0.684001 0.700568 0.692058 0.679693 0.690313
          0.684073 0.709689 0.701068 0.693547 0.680982 0.685021
          0.701025 0.706788 0.706733 0.707575 0.701939 0.697841
          0.697045 0.714 0.695112 0.691334 0.696121 0.690442
          0.688921 0.693334 0.682578 0.68969 0.689134 0.694481
          0.682364 0.691308 0.704059 0.488207 0.674361 0.694347
          0.690403 0.684771 0.685465 0.671361 0.693959 0.703238
          0.709163 0.694002 0.694867 0.716493 0.688143 0.70277
          0.708307 0.694032 0.685636 0.697581 0.709317 0.713326
          0.710439 0.704247 0.720459 0.722179 0.716171 0.720417
          0.710306 0.708422 0.701389 0.699668 0.716085 0.722981
          0.481968 0.677452 0.690683 0.68621 0.688867 0.68315
          0.679233 0.698104 0.700461 0.698394 0.697303 0.694928
          0.703122 0.683789 0.691207 0.707191 0.697696 0.697871
          0.695568 0.702295 0.700279 0.710179 0.696601 0.699717
          0.694675 0.685489 0.690485 0.70064 0.689646 0.689368
          0.692834 0.695712 0.716197 0.48138 0.685062 0.693127
          0.676973 0.685817 0.688396 0.706159 0.67745 0.680455
          0.697426 0.710889 0.694287 0.696134 0.705266 0.689947
          0.690338 0.694628 0.697385 0.703445 0.707293 0.709192
          0.692431 0.69716 0.689601 0.679107 0.698654 0.698124
          0.693723 0.688486 0.689679 0.687719 0.687193 0.69779
          0.482804 0.705849 0.681963 0.70521 0.701576 0.703305
          0.693131 0.690006 0.699735 0.693795 0.701922 0.710521
          0.709167 0.718481 0.690536 0.713065 0.69536 0.697748
          0.719683 0.690666 0.704147 0.711377 0.690432 0.705165
          0.716281 0.719224 0.715995 0.708969 0.706762 0.708426
          0.732064 0.709664 0.71368 0.494693 0.700686 0.681766
          0.711205 0.70743 0.712295 0.71069 0.694469 0.706291
          0.687461 0.706063 0.705562 0.703567 0.708669 0.693535
          0.697942 0.708792 0.692453 0.710786 0.695694 0.715603
          0.697298 0.692188 0.700111 0.719518 0.707516 0.693192
          0.709483 0.711668 0.700759 0.720952 0.717513 0.711194
          0.480268 0.681038 0.692573 0.700055 0.685956 0.676532
          0.687507 0.692661 0.69303 0.707216 0.689819 0.692043
          0.705428 0.679513 0.702656 0.696959 0.697795 0.696587
          0.69713 0.693314 0.712031 0.713544 0.68477 0.701484
          0.694151 0.689335 0.705165 0.706928 0.701367 0.706888
          0.698056 0.709737 0.703249 0.496839 0.69213 0.689854
          0.69281 0.704877 0.700929 0.684004 0.718123 0.685887
          0.693599 0.692382 0.711067 0.694229 0.699176 0.697408
          0.695785 0.691961 0.712947 0.702893 0.705086 0.708988
          0.704333 0.704331 0.700362 0.711793 0.709967 0.704127
          0.703236 0.70027 0.705312 0.700138 0.705744 0.708299
          0.487601 0.690318 0.690292 0.677323 0.683988 0.681771
          0.691232 0.708305 0.686119 0.691673 0.709772 0.691059
          0.705684 0.69992 0.705536 0.70066 0.692311 0.712288
          0.69438 0.715189 0.688697 0.686777 0.682181 0.684202
          0.693033 0.671523 0.693132 0.688864 0.689854 0.688285
          0.692103 0.694398 0.690809 0.483334 0.696629 0.694723
          0.687993 0.713292 0.698698 0.711685 0.692251 0.699842
          0.703732 0.708193 0.69795 0.6995 0.699861 0.701881
          0.700741 0.700867 0.698676 0.696405 0.710168 0.68578
          0.689475 0.683222 0.687647 0.693408 0.700452 0.69695
          0.689096 0.691271 0.689626 0.686727 0.694796 0.697548
          0.507546 0.703861 0.69923 0.689767 0.711864 0.700783
          0.704261 0.702344 0.692841 0.700692 0.698645 0.708989
          0.691587 0.700794 0.70808 0.703888 0.700076 0.704989
          0.709897 0.701939 0.704386 0.686918 0.680699 0.689269
          0.69583 0.704952 0.686063 0.686602 0.684006 0.685589
          0.698052 0.707681 0.688124 0.505883 0.707559 0.690411
          0.697104 0.707416 0.692229 0.702798 0.700073 0.703417
          0.695699 0.700101 0.701794 0.696087 0.70538 0.696496
          0.706113 0.700512 0.687873 0.704695 0.698425 0.69588
          0.671168 0.678787 0.697569 0.687562 0.711748 0.675845
          0.699723 0.69333 0.687877 0.707009 0.678298 0.695279
          0.475152 0.667128 0.705085 0.695747 0.68336 0.681392
          0.682469 0.700293 0.690578 0.700158 0.698409 0.697205
          0.723228 0.689037 0.703234 0.69753 0.697284 0.684577
          0.691674 0.702557 0.691994 0.707761 0.720265 0.714373
          0.713368 0.705677 0.717947 0.724933 0.710121 0.711762
          0.707585 0.71622 0.710607 0.476499 0.683657 0.696615
          0.692519 0.667696 0.683345 0.687825 0.708622 0.697756
          0.706902 0.681594 0.702291 0.698787 0.70259 0.697781
          0.695186 0.692251 0.70807 0.693729 0.704732 0.696533
          0.69737 0.698013 0.697299 0.710509 0.689155 0.696143
          0.693781 0.68449 0.694619 0.692924 0.694878 0.682668
          0.486399 0.686338 0.684984 0.691515 0.702767 0.687463
          0.686646 0.700103 0.684189 0.700963 0.707042 0.702777
          0.696144 0.709574 0.69489 0.703779 0.69837 0.698356
          0.717949 0.693547 0.713102 0.722388 0.714006 0.709373
          0.722912 0.735092 0.70833 0.708462 0.709771 0.715803
          0.721655 0.715873 0.702263 0.485529 0.68655 0.701247
          0.693897 0.710708 0.702423 0.683272 0.712546 0.698144
          0.70829 0.692558 0.699069 0.688009 0.6927 0.696401
          0.691292 0.697915 0.713667 0.689374 0.705269 0.692721
          0.694426 0.699116 0.707105 0.695762 0.688634 0.695781
          0.7092 0.684636 0.700928 0.678755 0.703572 0.686844
          0.508183 0.695729 0.710918 0.702237 0.701277 0.690158
          0.710681 0.691868 0.701844 0.715314 0.698193 0.695086
          0.705301 0.69054 0.703291 0.707493 0.689525 0.711877
          0.704748 0.693965 0.695156 0.691137 0.696493 0.701061
          0.702631 0.692951 0.697762 0.693633 0.677473 0.705913
          0.706735 0.690656 0.705904 0.49522 0.6826 0.697658
          0.694599 0.703075 0.713953 0.686594 0.715206 0.689427
          0.710648 0.697091 0.706259 0.711236 0.685557 0.707571
          0.686198 0.70859 0.698057 0.694156 0.710077 0.718847
          0.688184 0.688447 0.699095 0.696778 0.696988 0.705679
          0.69845 0.692347 0.70636 0.683784 0.692527 0.707173
          0.496305 0.695588 0.691316 0.700229 0.693288 0.704497
          0.691644 0.693146 0.684326 0.679416 0.687565 0.695958
          0.713448 0.706014 0.690191 0.681003 0.712185 0.710104
          0.692125 0.685792 0.698023 0.694964 0.707927 0.70579
          0.705786 0.69422 0.681575 0.700669 0.715221 0.711162
          0.697471 0.695999 0.715983 0.488249 0.692798 0.670046
          0.687122 0.694906 0.680583 0.693406 0.680542 0.711797
          0.692242 0.698259 0.696282 0.702717 0.722985 0.688714
          0.71425 0.692134 0.704025 0.707524 0.697561 0.688742
          0.697787 0.686475 0.684019 0.694584 0.7028 0.690599
          0.679051 0.684727 0.698767 0.690447 0.688748 0.691619
          0.499179 0.717358 0.698649 0.717306 0.706823 0.701307
          0.698008 0.70002 0.705334 0.695653 0.704346 0.686399
          0.704471 0.713449 0.705099 0.688579 0.690959 0.708978
          0.706758 0.719172 0.685978 0.681443 0.685025 0.697211
          0.698911 0.689407 0.680094 0.695437 0.689078 0.680666
          0.696349 0.702089 0.686638 0.50325 0.678549 0.713506
          0.712315 0.679054 0.686272 0.694263 0.694415 0.689542
          0.699149 0.695028 0.712329 0.709791 0.699492 0.702105
          0.714122 0.701871 0.682258 0.704364 0.702452 0.700247
          0.705036 0.698338 0.698146 0.712613 0.68153 0.69921
          0.700838 0.703397 0.701842 0.699353 0.709739 0.70689
          0.491459 0.694366 0.711195 0.696067 0.689948 0.701927
          0.700777 0.693973 0.69394 0.7011 0.689469 0.7064
          0.69528 0.694287 0.702648 0.686953 0.711756 0.712735
          0.697079 0.689444 0.703479 0.717518 0.697769 0.721527
          0.715178 0.69996 0.717883 0.707094 0.722364 0.71727
          0.697441 0.715831 0.71231 0.475444 0.675328 0.687323
          0.702384 0.687816 0.685498 0.690169 0.689156 0.7013
          0.699022 0.693534 0.699303 0.721012 0.690352 0.701749
          0.698006 0.705427 0.69202 0.685179 0.706645 0.708213
          0.710156 0.703614 0.725043 0.714719 0.70351 0.710797
          0.709021 0.694605 0.700997 0.709935 0.715601 0.715867
          0.477881 0.675071 0.693862 0.679671 0.701467 0.692151
          0.696231 0.695476 0.69547 0.677574 0.685185 0.699837
          0.704099 0.699523 0.72159 0.697343 0.700059 0.705505
          0.71239 0.697388 0.706914 0.722433 0.712911 0.708242
          0.715969 0.699349 0.70976 0.697969 0.724393 0.72353
          0.70787 0.715331 0.715011 0.492556 0.695025 0.698604
          0.697929 0.714713 0.699529 0.70791 0.697869 0.692158
          0.710307 0.698028 0.702728 0.712082 0.699515 0.706267
          0.693091 0.696 0.717173 0.702116 0.695339 0.696571
          0.69955 0.701562 0.702442 0.712863 0.707525 0.701219
          0.716113 0.704991 0.709939 0.703936 0.712779 0.707755
          0.498084 0.67527 0.695509 0.692383 0.705296 0.683044
          0.707842 0.704436 0.707753 0.688222 0.686067 0.716335
          0.702033 0.70134 0.71327 0.701257 0.695886 0.710395
          0.700131 0.691248 0.711218 0.720075 0.708477 0.700928
          0.702211 0.705617 0.710752 0.712284 0.708587 0.704518
          0.69069 0.70374 0.70318 0.494109 0.678988 0.677678
          0.680033 0.701557 0.678597 0.696163 0.707548 0.695492
          0.710522 0.701042 0.703739 0.686855 0.71108 0.702308
          0.713158 0.684546 0.715327 0.698793 0.70077 0.716867
          0.717454 0.708631 0.698072 0.717487 0.704489 0.686589
          0.696423 0.707242 0.709487 0.719233 0.694217 0.713283
          0.505835 0.6902 0.693665 0.69918 0.706353 0.701082
          0.687492 0.712732 0.69698 0.703107 0.693211 0.707795
          0.686842 0.71608 0.696329 0.6994 0.699166 0.70429
          0.700196 0.702985 0.717659 0.709569 0.711695 0.699346
          0.721711 0.697105 0.717232 0.716898 0.708304 0.712729
          0.688288 0.71414 0.71101 0.480978 0.669046 0.676262
          0.696058 0.67886 0.701031 0.689659 0.679582 0.694
          0.706865 0.697403 0.705077 0.699745 0.710701 0.700647
          0.693922 0.707893 0.698758 0.708936 0.699125 0.718774
          0.719203 0.710409 0.710433 0.715487 0.70857 0.713548
          0.715135 0.704938 0.708796 0.706078 0.704506 0.705158
          0.479896 0.719335 0.688223 0.705746 0.698309 0.69222
          0.704589 0.689351 0.668313 0.707262 0.692675 0.710456
          0.702959 0.709531 0.689921 0.719697 0.695454 0.69535
          0.696788 0.698203 0.694303 0.701501 0.71813 0.701924
          0.718796 0.717241 0.687817 0.703899 0.698519 0.696961
          0.712228 0.722366 0.720241 0.491861 0.675485 0.713009
          0.693181 0.687574 0.687331 0.687362 0.69238 0.709404
          0.697146 0.692292 0.694619 0.697119 0.681803 0.701954
          0.704834 0.704476 0.694789 0.695382 0.705775 0.692157
          0.695444 0.709663 0.696655 0.702494 0.687756 0.718743
          0.699802 0.699257 0.720809 0.694526 0.698814 0.703946
          0.501657 0.679902 0.708736 0.698123 0.698277 0.706939
          0.691776 0.704872 0.683124 0.694096 0.696169 0.704888
          0.694596 0.702754 0.708172 0.690786 0.696386 0.693403
          0.693758 0.711774 0.701034 0.704284 0.697982 0.715355
          0.696222 0.686088 0.691691 0.698757 0.693316 0.694344
          0.688867 0.696763 0.686112 0.495794 0.719318 0.707677
          0.693749 0.695996 0.699727 0.702479 0.693482 0.692263
          0.690202 0.700472 0.705864 0.703439 0.695632 0.705286
          0.690122 0.698749 0.684599 0.710266 0.702218 0.690329
          0.703909 0.693437 0.68415 0.688799 0.70841 0.693749
          0.699194 0.690228 0.696699 0.691986 0.698975 0.696287
          0.482614 0.714363 0.688167 0.705933 0.702642 0.685105
          0.700206 0.710427 0.703789 0.691831 0.704256 0.706329
          0.713937 0.707927 0.691426 0.703046 0.710058 0.694865
          0.712028 0.698795 0.704867 0.69029 0.711141 0.682018