<?xml version="1.0"?>
<VTKFile type="PolyData" version="0.1" byte_order="LittleEndian" header_type="UInt32" compressor="vtkZLibDataCompressor">
  <PolyData>
    <Piece NumberOfPoints="8160" NumberOfVerts="0" NumberOfLines="0" NumberOfStrips="0" NumberOfPolys="0">
      <PointData Scalars="Calcium Concentration">
        <DataArray type="Float32" Name="Calcium Concentration" format="ascii" RangeMin="0.2998490035533905" RangeMax="0.7375990152359009">
          0.323543 0.690575 0.702139 0.697045 0.708493 0.708151
          0.685662 0.692617 0.686865 0.70106 0.69652 0.709201
          0.693582 0.693608 0.689733 0.695116 0.694473 0.719969
          0.71261 0.690255 0.699079 0.690686 0.69704 0.681118
          0.680682 0.688476 0.688947 0.702705 0.69853 0.682188
          0.699501 0.698669 0.691931 0.698786 0.331432 0.695697
          0.701647 0.69353 0.707486 0.703211 0.697847 0.692732
          0.72233 0.699578 0.703244 0.707228 0.70107 0.699477
          0.693227 0.702988 0.696188 0.713017 0.707076 0.697906
          0.695646 0.686264 0.686461 0.675758 0.688418 0.703899
          0.694598 0.682877 0.698054 0.695889 0.712848 0.687289
          0.692758 0.69234 0.328231 0.672574 0.692613 0.682831
          0.685567 0.686616 0.693823 0.690406 0.683577 0.717601
          0.683039 0.704484 0.712226 0.693259 0.70496 0.705221
          0.713547 0.721454 0.719767 0.698193 0.707941 0.714837
          0.705805 0.717268 0.706928 0.704129 0.709248 0.714934
          0.703906 0.713916 0.707286 0.70959 0.699775 0.707298
          0.322638 0.686976 0.699021 0.698865 0.700789 0.693594
          0.704349 0.687154 0.719035 0.709843 0.692441 0.692508
          0.697922 0.701179 0.688669 0.700985 0.69903 0.698918
          0.711758 0.693267 0.705495 0.695771 0.690293 0.694691
          0.689533 0.696185 0.702838 0.695997 0.712376 0.697907
          0.699878 0.697084 0.699796 0.692742 0.315409 0.672555
          0.68591 0.684271 0.678471 0.688012 0.690774 0.682731
          0.708425 0.696516 0.702663 0.688156 0.696993 0.706544
          0.680988 0.71246 0.701544 0.704935 0.721761 0.696025
          0.696432 0.683938 0.698731 0.68252 0.68736 0.689213
          0.688745 0.688726 0.690625 0.700579 0.689408 0.693629
          0.705485 0.687752 0.338747 0.700186 0.705083 0.703142
          0.70044 0.709973 0.703605 0.709225 0.682362 0.696777
          0.696178 0.701117 0.703706 0.693697 0.694082 0.69858
          0.698298 0.697335 0.711716 0.704396 0.701109 0.714592
          0.701727 0.702845 0.716269 0.727985 0.699671 0.701459
          0.694407 0.700142 0.708625 0.707971 0.699402 0.709592
          0.319996 0.678672 0.696033 0.689163 0.674568 0.698367
          0.678418 0.683759 0.697864 0.718897 0.684344 0.703015
          0.701505 0.699552 0.695436 0.695336 0.703631 0.713641
          0.709259 0.696315 0.697119 0.702661 0.70033 0.696664
          0.709896 0.7165 0.713306 0.712029 0.719188 0.710973
          0.711914 0.719189 0.706186 0.705697 0.317044 0.684455
          0.696885 0.701893 0.686377 0.698908 0.692366 0.673719
          0.687669 0.703995 0.719485 0.709678 0.687464 0.719356
          0.692893 0.706642 0.704557 0.693145 0.711076 0.690255
          0.686052 0.691668 0.686955 0.685337 0.692773 0.691985
          0.704526 0.680667 0.699644 0.681529 0.695304 0.68142
          0.67316 0.690632 0.313015 0.678336 0.67745 0.683328
          0.671379 0.690142 0.695658 0.698966 0.693438 0.698013
          0.705583 0.700177 0.703077 0.712104 0.69237 0.70636
          0.708665 0.698774 0.711705 0.68877 0.704118 0.718564
          0.697229 0.699981 0.707927 0.7243 0.700829 0.709395
          0.708234 0.715214 0.71465 0.707655 0.711667 0.710592
          0.324511 0.687079 0.694259 0.691941 0.700626 0.710883
          0.701832 0.700582 0.709843 0.708654 0.702653 0.696278
          0.699666 0.701935 0.700403 0.689779 0.700178 0.707156
          0.727476 0.688332 0.705606 0.69874 0.697117 0.709735
          0.715731 0.707518 0.694684 0.706754 0.710936 0.693733
          0.70652 0.704269 0.707853 0.714427 0.333037 0.693431
          0.702692 0.709906 0.691847 0.714889 0.700599 0.702773
          0.705763 0.708806 0.702176 0.699907 0.705672 0.70294
          0.693282 0.700259 0.702761 0.695996 0.706579 0.714164
          0.707921 0.712425 0.705729 0.708897 0.702868 0.698483
          0.705214 0.702374 0.721261 0.702829 0.717398 0.712882
          0.709168 0.710477 0.315854 0.67173 0.687261 0.695456
          0.682469 0.690595 0.679534 0.698764 0.699122 0.708954
          0.700529 0.703335 0.695339 0.692979 0.690671 0.703886
          0.700213 0.696289 0.710441 0.698608 0.686353 0.690832
          0.703689 0.682136 0.681102 0.704697 0.69364 0.697594
          0.67876 0.686547 0.691088 0.699154 0.697139 0.702569
          0.325207 0.698165 0.711217 0.699288 0.693817 0.694211
          0.707326 0.699495 0.701227 0.705354 0.701309 0.691716
          0.707839 0.69681 0.70515 0.701026 0.69787 0.707659
          0.708445 0.702831 0.693726 0.68907 0.694435 0.686988
          0.689947 0.705317 0.68128 0.685102 0.705098 0.692316
          0.687358 0.68491 0.700196 0.698487 0.334688 0.682436
          0.686438 0.706771 0.711782 0.6883 0.704592 0.691455
          0.698067 0.711148 0.696748 0.702435 0.69243 0.706071
          0.700617 0.695537 0.698356 0.709875 0.720715 0.700608
          0.698185 0.693309 0.674217 0.687225 0.675781 0.691442
          0.691045 0.693508 0.700029 0.682751 0.697008 0.680332
          0.683596 0.695218 0.310765 0.666588 0.690048 0.701572
          0.694649 0.687896 0.684646 0.696067 0.683808 0.702107
          0.700067 0.7071 0.690832 0.70792 0.69476 0.684223
          0.698489 0.690324 0.700401 0.696381 0.707729 0.716531
          0.710017 0.709025 0.708077 0.713985 0.712979 0.706213
          0.71418 0.722957 0.70014 0.72042 0.710626 0.70702
          0.317777 0.702827 0.693168 0.692402 0.709079 0.706279
          0.687845 0.692171 0.703584 0.705473 0.69868 0.703597
          0.694107 0.704435 0.69985 0.704312 0.693718 0.705597
          0.704043 0.707253 0.688769 0.680804 0.696312 0.688746
          0.694565 0.698085 0.694643 0.686026 0.688985 0.689951
          0.690991 0.693843 0.688226 0.692013 0.322679 0.670774
          0.693268 0.691149 0.688839 0.698821 0.690123 0.695619
          0.694993 0.690445 0.701333 0.706096 0.703696 0.69953
          0.715014 0.699636 0.699287 0.703541 0.708347 0.69691
          0.695912 0.699655 0.69952 0.699951 0.68683 0.684438
          0.686086 0.699507 0.697597 0.702837 0.708761 0.700928
          0.68773 0.695468 0.310475 0.6822 0.681814 0.675222
          0.686956 0.694421 0.692915 0.70737 0.692145 0.710134
          0.698251 0.71458 0.696326 0.695037 0.702349 0.694484
          0.696441 0.706598 0.71429 0.697027 0.69074 0.703118
          0.705368 0.714013 0.704579 0.726865 0.695245 0.696233
          0.694854 0.705147 0.702496 0.700391 0.719433 0.726911
          0.313555 0.682296 0.694154 0.688925 0.690306 0.676589
          0.688996 0.695061 0.696224 0.707895 0.688214 0.690887
          0.701507 0.690175 0.699264 0.696927 0.697427 0.715198
          0.697908 0.708841 0.703609 0.690305 0.683697 0.688854
          0.683448 0.70193 0.687747 0.683773 0.685652 0.692501
          0.703756 0.68151 0.694562 0.704785 0.335779 0.686451
          0.693253 0.710244 0.697229 0.688216 0.704181 0.702071
          0.694066 0.709844 0.70331 0.698313 0.687091 0.686283
          0.696879 0.702224 0.702157 0.697177 0.713022 0.697199
          0.68568 0.697851 0.68038 0.674886 0.693526 0.696037
          0.687031 0.691519 0.700622 0.686619 0.683826 0.691733
          0.680658 0.698502 0.312826 0.698411 0.688832 0.688248
          0.696835 0.697754 0.698571 0.716808 0.693978 0.696598
          0.710884 0.69225 0.695009 0.705465 0.680185 0.700342
          0.70656 0.69866 0.72185 0.692802 0.693889 0.703177
          0.68021 0.682914 0.695333 0.692673 0.690399 0.692698
          0.703776 0.701178 0.694065 0.689734 0.703807 0.700921
          0.331607 0.678754 0.707629 0.685499 0.699296 0.706252
          0.710072 0.696472 0.693708 0.711433 0.695415 0.69378
          0.707397 0.683065 0.700992 0.693653 0.698879 0.705889
          0.6921 0.699414 0.707993 0.703694 0.705929 0.712745
          0.701893 0.709211 0.70963 0.701262 0.711736 0.711036
          0.721409 0.703665 0.703003 0.697721 0.325441 0.709397
          0.678517 0.708628 0.70393 0.697414 0.704616 0.709533
          0.686356 0.695269 0.710348 0.694223 0.696962 0.684583
          0.692887 0.704626 0.696254 0.713038 0.712268 0.701034
          0.712969 0.705576 0.699637 0.713192 0.708446 0.701139
          0.704044 0.703093 0.688517 0.700094 0.716429 0.713794
          0.717463 0.722276 0.32331 0.705072 0.702434 0.697556
          0.701 0.693626 0.708594 0.696898 0.696825 0.700963
          0.701077 0.693144 0.695661 0.706004 0.690644 0.698946
          0.70423 0.707452 0.70797 0.682606 0.702048 0.700135
          0.708964 0.711682 0.710019 0.704945 0.713979 0.718959
          0.722915 0.698626 0.710841 0.702364 0.69755 0.726732
          0.31833 0.691575 0.691362 0.696914 0.710916 0.684094
          0.713658 0.694506 0.709584 0.702188 0.704817 0.693657
          0.689258 0.702007 0.696921 0.700884 0.704901 0.686992
          0.707339 0.697332 0.698249 0.693139 0.665653 0.692166
          0.685137 0.689138 0.690346 0.689497 0.708297 0.70055
          0.685242 0.681559 0.684555 0.693062 0.323997 0.675222
          0.70234 0.708516 0.700115 0.706884 0.703075 0.703618
          0.694747 0.699806 0.688305 0.704777 0.702342 0.693989
          0.698002 0.702337 0.702132 0.697275 0.697681 0.696495
          0.70342 0.691403 0.68585 0.686294 0.685555 0.692417
          0.702332 0.694343 0.702906 0.703576 0.686051 0.695752
          0.697322 0.68796 0.328067 0.696968 0.686208 0.703017
          0.701082 0.701936 0.702188 0.697461 0.69237 0.691516
          0.7131 0.69245 0.704465 0.705211 0.688873 0.691233
          0.707907 0.716729 0.687181 0.704322 0.699786 0.691431
          0.674336 0.698249 0.69743 0.695518 0.682872 0.688769
          0.675966 0.680157 0.691857 0.683246 0.693549 0.698065
          0.325917 0.688985 0.687246 0.693046 0.685829 0.699606
          0.690307 0.700273 0.685874 0.703404 0.70391 0.673614
          0.69436 0.678308 0.685704 0.71123 0.710958 0.69098
          0.713093 0.698246 0.698811 0.697135 0.689995 0.686996
          0.688315 0.686971 0.692708 0.684957 0.680258 0.683097
          0.698438 0.69998 0.680113 0.709269 0.316317 0.692431
          0.689025 0.699455 0.703983 0.693202 0.703749 0.69999
          0.681017 0.731803 0.68267 0.688195 0.70492 0.687984
          0.707191 0.700433 0.695137 0.696552 0.70261 0.708414
          0.696694 0.685936 0.675971 0.689502 0.685763 0.693177
          0.686793 0.687127 0.716409 0.694572 0.683307 0.704412
          0.703709 0.684052 0.323601 0.682872 0.694326 0.702513
          0.697176 0.686174 0.709979 0.688753 0.704169 0.708362
          0.705231 0.69858 0.694366 0.705106 0.697597 0.715957
          0.694032 0.682756 0.719506 0.695254 0.691978 0.694323
          0.687556 0.689392 0.691172 0.69827 0.688103 0.708607
          0.702342 0.694547 0.689249 0.675542 0.684697 0.696882
          0.326295 0.675631 0.693888 0.689827 0.674349 0.6895
          0.697073 0.698172 0.685596 0.697887 0.698091 0.700559
          0.70122 0.70133 0.694913 0.694016 0.694369 0.697769
          0.689523 0.701613 0.696157 0.715662 0.708641 0.718195
          0.711503 0.717211 0.713143 0.697902 0.70551 0.709412
          0.703207 0.705629 0.70409 0.716364 0.318381 0.681484
          0.695276 0.694531 0.695967 0.693627 0.697805 0.694075
          0.682185 0.682335 0.691749 0.695076 0.69363 0.706439
          0.705258 0.705548 0.704305 0.702085 0.703991 0.702156
          0.702626 0.713158 0.718207 0.712794 0.699187 0.715986
          0.700819 0.717409 0.714905 0.709227 0.70531 0.70792
          0.713765 0.710015 0.325504 0.691024 0.686212 0.694012
          0.709079 0.702533 0.712551 0.689919 0.696826 0.707414
          0.702567 0.688786 0.711023 0.705812 0.689531 0.686777
          0.692598 0.700201 0.720902 0.692247 0.703948 0.703537
          0.70432 0.711583 0.699731 0.711984 0.70793 0.707992
          0.699672 0.71445 0.715042 0.713482 0.705781 0.712607
          0.314489 0.670099 0.689171 0.696628 0.680189 0.683671
          0.692777 0.686825 0.682542 0.692717 0.711361 0.705556
          0.692676 0.704212 0.700502 0.709553 0.711499 0.699455
          0.720103 0.69901 0.699129 0.694818 0.688024 0.706945
          0.707479 0.681999 0.702046 0.699818 0.692365 0.68986
          0.694685 0.690653 0.697397 0.696482 0.334151 0.683748
          0.690305 0.684788 0.683416 0.692146 0.680648 0.689601
          0.707815 0.69801 0.7056 0.697726 0.697497 0.705069
          0.700055 0.703446 0.713514 0.699259 0.700326 0.714408
          0.699978 0.704574 0.694362 0.69375 0.68201 0.690498
          0.707691 0.696937 0.696028 0.706023 0.69313 0.695862
          0.684825 0.696185 0.320498 0.665573 0.687713 0.704074
          0.687648 0.690583 0.686052 0.695876 0.697425 0.694929
          0.688671 0.690167 0.702888 0.69831 0.701908 0.697268
          0.696341 0.704157 0.70923 0.709763 0.696127 0.697103
          0.688998 0.700898 0.706333 0.704708 0.690928 0.701712
          0.705759 0.700089 0.695253 0.686004 0.691525 0.693468
          0.315271 0.687201 0.693958 0.708198 0.687331 0.708852
          0.700711 0.698048 0.70357 0.701502 0.689934 0.704099
          0.696689 0.689735 0.686187 0.71114 0.701409 0.707404
          0.704434 0.706968 0.688487 0.694628 0.703733 0.685748
          0.693787 0.692921 0.68249 0.691811 0.708911 0.696341
          0.686447 0.685487 0.688349 0.679942 0.322611 0.663062
          0.685568 0.690457 0.692352 0.689557 0.689396 0.688958
          0.696184 0.706516 0.6853 0.698279 0.700432 0.690713
          0.687741 0.704677 0.687407 0.706497 0.705418 0.700959
          0.691073 0.689994 0.717553 0.708272 0.70127 0.716063
          0.716752 0.712874 0.720153 0.715528 0.699406 0.713607
          0.716631 0.709281 0.329304 0.694446 0.6913 0.692194
          0.699057 0.696028 0.696507 0.688948 0.69486 0.707866
          0.688585 0.704047 0.710205 0.699532 0.700751 0.703656
          0.692452 0.702956 0.708927 0.699056 0.7059 0.68999
          0.691434 0.703862 0.707588 0.6953 0.713497 0.691763
          0.68727 0.695027 0.692936 0.684849 0.688334 0.688665
          0.315201 0.694529 0.693479 0.697496 0.694145 0.696979
          0.702157 0.6983 0.709002 0.712777 0.703902 0.692392
          0.709062 0.696678 0.702122 0.698464 0.690092 0.699537
          0.70229 0.699329 0.699268 0.70141 0.696448 0.684692
          0.70446 0.687813 0.689364 0.682435 0.697983 0.700347
          0.708306 0.704212 0.675912 0.694918 0.321428 0.683912
          0.695212 0.701812 0.709655 0.698945 0.706249 0.696836
          0.713733 0.699066 0.687778 0.715376 0.696055 0.687964
          0.692015 0.694945 0.69856 0.697537 0.681648 0.713027
          0.693745 0.700853 0.697049 0.706586 0.690456 0.692641
          0.700104 0.704852 0.700588 0.696855 0.684028 0.69401
          0.686915 0.694744 0.331521 0.700303 0.711629 0.697877
          0.682131 0.705408 0.70182 0.710213 0.688834 0.697915
          0.705149 0.693448 0.707941 0.692053 0.687661 0.709702
          0.699752 0.693334 0.712483 0.702174 0.702731 0.705001
          0.698481 0.704545 0.70299 0.719252 0.707583 0.711816
          0.710304 0.704906 0.704648 0.70138 0.708906 0.707949
          0.314649 0.688801 0.702628 0.698957 0.694945 0.692201
          0.713077 0.686243 0.700584 0.692944 0.715216 0.700482
          0.694959 0.704824 0.702532 0.687213 0.700477 0.697012
          0.728676 0.697799 0.684569 0.694428 0.697534 0.693559
          0.690205 0.692329 0.690655 0.688561 0.687007 0.697438
          0.697954 0.702403 0.685233 0.687649 0.319001 0.692152
          0.711229 0.691079 0.696937 0.699883 0.698813 0.706418
          0.693993 0.698197 0.70029 0.692065 0.712333 0.690912
          0.687384 0.710654 0.702578 0.700037 0.716269 0.697899
          0.699758 0.710345 0.700955 0.697888 0.706575 0.721495
          0.712973 0.705971 0.71392 0.71843 0.69538 0.704944
          0.71402 0.705345 0.316326 0.656926 0.691637 0.70036
          0.703312 0.692062 0.687276 0.694646 0.701424 0.697377
          0.68239 0.695439 0.683533 0.698923 0.696768 0.695382
          0.695197 0.713871 0.704721 0.700709 0.71696 0.707159
          0.713829 0.714463 0.70948 0.718197 0.718582 0.716362
          0.722901 0.711626 0.707539 0.726326 0.710669 0.700288
          0.31047 0.668438 0.683222 0.677126 0.689451 0.692363
          0.705116 0.684296 0.682431 0.70299 0.712444 0.695658
          0.703137 0.690752 0.69714 0.702634 0.706123 0.714718
          0.698114 0.693641 0.699797 0.692332 0.711643 0.70503
          0.706217 0.709942 0.701522 0.703974 0.706723 0.716596
          0.700707 0.713419 0.715292 0.712992 0.312955 0.68009
          0.687806 0.688756 0.692131 0.678444 0.69626 0.680081
          0.692085 0.713577 0.700559 0.696156 0.696573 0.708868
          0.693882 0.70733 0.700063 0.713104 0.709181 0.698566
          0.716304 0.708297 0.717432 0.709136 0.690827 0.709903
          0.696272 0.705266 0.709486 0.717456 0.693207 0.709779
          0.707926 0.711029 0.33845 0.696977 0.709315 0.701408
          0.69696 0.715236 0.697895 0.695143 0.706364 0.688835
          0.704667 0.685912 0.691478 0.718271 0.688934 0.699737
          0.694745 0.704744 0.708347 0.701057 0.708625 0.702599
          0.705971 0.70983 0.695692 0.702014 0.708158 0.710693
          0.711471 0.706142 0.713107 0.707994 0.703302 0.717761
          0.299849 0.67509 0.690633 0.701733 0.685769 0.68402
          0.699073 0.693317 0.688126 0.681649 0.704082 0.700289
          0.708623 0.695305 0.701301 0.703215 0.6859 0.693403
          0.706497 0.700957 0.686003 0.693083 0.682407 0.690472
          0.701004 0.68748 0.697857 0.691266 0.690443 0.704283
          0.689776 0.698969 0.694437 0.692288 0.336256 0.67803
          0.707777 0.696096 0.691485 0.695645 0.693315 0.696058
          0.684418 0.710914 0.694755 0.701122 0.714338 0.674418
          0.710779 0.703983 0.69993 0.710783 0.698545 0.719775
          0.697042 0.701446 0.694693 0.695871 0.689225 0.702932
          0.703582 0.707531 0.702767 0.681467 0.701255 0.702178
          0.686253 0.689611 0.3352 0.675971 0.696121 0.688006
          0.673602 0.694347 0.689336 0.705876 0.706203 0.687308
          0.683569 0.693906 0.692021 0.70037 0.710068 0.71207
          0.686569 0.710594 0.698558 0.715627 0.700728 0.689005
          0.692802 0.693207 0.695875 0.691955 0.694203 0.68617
          0.696009 0.707936 0.683138 0.692363 0.695601 0.699436
          0.3266 0.662738 0.68811 0.694358 0.69655 0.686414
          0.693229 0.700011 0.690635 0.696431 0.690205 0.702329
          0.703058 0.695883 0.69746 0.70101 0.691639 0.688977
          0.699532 0.704038 0.705442 0.724181 0.712852 0.720024
          0.721542 0.723879 0.717542 0.699395 0.722332 0.69827
          0.703995 0.70797 0.721222 0.691523 0.323285 0.666156
          0.687687 0.701074 0.694555 0.687245 0.676914 0.686638
          0.707274 0.695295 0.700371 0.703469 0.698992 0.702078
          0.703341 0.702734 0.692276 0.68787 0.696666 0.701627
          0.70227 0.705677 0.698376 0.700013 0.692238 0.687162
          0.691939 0.691916 0.699739 0.682475 0.690782 0.699183
          0.693643 0.689822 0.330983 0.687434 0.69617 0.681651
          0.68369 0.691412 0.699191 0.685935 0.6779 0.699339
          0.712282 0.685538 0.69711 0.697269 0.691846 0.701115
          0.694349 0.702329 0.710146 0.710264 0.707589 0.681258
          0.692846 0.701176 0.679098 0.692365 0.704134 0.68615
          0.686849 0.692979 0.681918 0.683107 0.693909 0.692606
          0.326468 0.709234 0.69903 0.723327 0.695732 0.690849
          0.690376 0.697029 0.690668 0.715731 0.693938 0.704
          0.698354 0.701711 0.688573 0.691723 0.690634 0.704445
          0.726147 0.697041 0.70629 0.713406 0.699619 0.7098
          0.715237 0.724698 0.712262 0.70721 0.699462 0.711981
          0.720448 0.70783 0.712036 0.719143 0.318661 0.690683
          0.692054 0.709308 0.703932 0.701841 0.695682 0.693192
          0.701926 0.69522 0.698003 0.690611 0.702468 0.703365
          0.68681 0.697286 0.700581 0.699815 0.714427 0.70036
          0.69635 0.700995 0.700701 0.701414 0.714736 0.686641
          0.695624 0.702716 0.708239 0.69609 0.725875 0.711271
          0.715252 0.707239 0.315752 0.659452 0.69921 0.691659
          0.684966 0.685347 0.68859 0.696568 0.705712 0.702439
          0.691191 0.697109 0.716915 0.691863 0.702631 0.696726
          0.692406 0.704115 0.700526 0.701426 0.704254 0.699129
          0.691153 0.705216 0.701828 0.699901 0.69786 0.705063
          0.69493 0.714803 0.686609 0.70756 0.702589 0.696919
          0.337139 0.692733 0.706053 0.690342 0.704049 0.699831
          0.693264 0.69925 0.6986 0.677212 0.69487 0.711429
          0.704993 0.704048 0.700142 0.702755 0.698335 0.701839
          0.701473 0.716739 0.701394 0.715727 0.700215 0.706482
          0.711981 0.711764 0.697103 0.697956 0.706661 0.706572
          0.695739 0.694058 0.707501 0.707541 0.324933 0.669776
          0.692345 0.693573 0.674672 0.6756 0.693986 0.70709
          0.695372 0.704059 0.706348 0.691218 0.709742 0.702756
          0.706637 0.686456 0.701607 0.706404 0.712646 0.705072
          0.700427 0.696415 0.684633 0.688818 0.692287 0.680343
          0.686633 0.692396 0.691632 0.68796 0.690295 0.685013
          0.69213 0.698707 0.31186 0.682493 0.701595 0.699907
          0.705822 0.694832 0.700032 0.683641 0.692804 0.705361
          0.717362 0.689046 0.6922 0.691574 0.703065 0.704991
          0.713913 0.702188 0.706691 0.712471 0.693105 0.69669
          0.690591 0.696415 0.697535 0.706811 0.697461 0.682376
          0.690174 0.694391 0.68206 0.686328 0.701006 0.674717
          0.329862 0.694423 0.694358 0.6925 0.708804 0.693651
          0.699602 0.701231 0.708649 0.708315 0.691108 0.709412
          0.686756 0.701032 0.700675 0.693099 0.692046 0.694809
          0.704654 0.698363 0.690151 0.690544 0.679995 0.692305
          0.689509 0.691492 0.690474 0.697514 0.684736 0.687769
          0.679088 0.694788 0.684041 0.700281 0.337944 0.700489
          0.692466 0.687212 0.705188 0.708549 0.694463 0.710785
          0.698287 0.696393 0.719502 0.6908 0.699294 0.703974
          0.690264 0.711611 0.712207 0.701 0.701547 0.702315
          0.695399 0.680737 0.678931 0.691626 0.680574 0.704553
          0.678921 0.699832 0.699409 0.689225 0.700498 0.671164
          0.69148 0.705123 0.318306 0.665335 0.699447 0.706005
          0.688986 0.678845 0.681112 0.709037 0.698623 0.689599
          0.693292 0.713991 0.712454 0.693814 0.712544 0.705657
          0.696637 0.68943 0.698748 0.703704 0.696208 0.70973
          0.725344 0.717447 0.718439 0.712998 0.71369 0.716605
          0.70696 0.69962 0.704025 0.732045 0.708056 0.699108
          0.326068 0.671394 0.686576 0.689754 0.682614 0.682016
          0.681176 0.706519 0.700712 0.701026 0.692235 0.71591
          0.695546 0.709393 0.706387 0.702407 0.697764 0.702488
          0.702224 0.698044 0.695087 0.696646 0.686996 0.687741
          0.698261 0.694183 0.698255 0.693771 0.693127 0.682641
          0.696641 0.683887 0.686359 0.694588 0.31071 0.675466
          0.683434 0.687432 0.696824 0.687011 0.691892 0.692978
          0.677368 0.694438 0.698954 0.697204 0.694773 0.693409
          0.700436 0.706023 0.700214 0.710799 0.725319 0.68833
          0.714808 0.713217 0.713545 0.711117 0.726864 0.707615
          0.711423 0.687918 0.708599 0.705312 0.726245 0.722552
          0.700121 0.720938 0.324624 0.672673 0.696205 0.692383
          0.705679 0.708226 0.683384 0.710517 0.704294 0.700582
          0.69779 0.713168 0.689516 0.704541 0.705062 0.678864
          0.695949 0.701367 0.698094 0.695854 0.698789 0.693171
          0.697692 0.713263 0.700792 0.691168 0.696553 0.705312
          0.689133 0.69816 0.676704 0.689379 0.690029 0.684041
          0.33573 0.675464 0.694703 0.69333 0.690584 0.7027
          0.706484 0.699106 0.704441 0.705022 0.690964 0.697257
          0.719447 0.697076 0.696515 0.713875 0.692159 0.710443
          0.703539 0.696151 0.702411 0.695 0.700151 0.700749
          0.710074 0.680342 0.70112 0.689029 0.679726 0.703924
          0.708013 0.688158 0.696612 0.683436 0.338032 0.684647
          0.692989 0.703407 0.695709 0.699691 0.687308 0.702582
          0.700535 0.716963 0.685363 0.714969 0.698898 0.692932
          0.712276 0.690164 0.71556 0.702716 0.691647 0.709389
          0.703327 0.691136 0.68949 0.695042 0.688186 0.698672
          0.709796 0.701295 0.694012 0.704294 0.683826 0.691732
          0.694482 0.681807 0.330608 0.686764 0.702905 0.70692
          0.6909 0.691049 0.686183 0.690034 0.679529 0.689204
          0.69437 0.678553 0.705382 0.699215 0.688792 0.693058
          0.702907 0.715651 0.707956 0.689285 0.696288 0.700723
          0.703454 0.711924 0.698598 0.698139 0.703292 0.698645
          0.716465 0.710112 0.704389 0.682315 0.722141 0.717912
          0.324201 0.678213 0.676791 0.678231 0.690782 0.690463
          0.6893 0.691858 0.705193 0.700888 0.703725 0.696439
          0.70403 0.723149 0.688643 0.713407 0.698599 0.699318
          0.699596 0.691817 0.693987 0.696489 0.687984 0.692328
          0.686481 0.689461 0.682531 0.679563 0.688511 0.686854
          0.679744 0.691335 0.695363 0.69017 0.331418 0.710631
          0.688255 0.700187 0.6997 0.689271 0.711337 0.69978
          0.711891 0.695615 0.709227 0.673568 0.714735 0.707837
          0.702155 0.687036 0.697736 0.722144 0.703594 0.698388
          0.684351 0.684584 0.680704 0.699905 0.695857 0.684773
          0.678908 0.687438 0.685061 0.678478 0.700872 0.690083
          0.695578 0.696046 0.334768 0.669298 0.699668 0.699632
          0.686992 0.688859 0.688268 0.710549 0.698227 0.695354
          0.700372 0.704002 0.709284 0.710816 0.69512 0.721302
          0.689694 0.692688 0.697437 0.701015 0.697148 0.705869
          0.711127 0.694616 0.706087 0.691047 0.70037 0.699827
          0.696667 0.706835 0.686407 0.702611 0.6972 0.684245
          0.325006 0.697799 0.704457 0.705085 0.692496 0.703578
          0.707224 0.703359 0.702768 0.698551 0.69564 0.718614
          0.693537 0.696751 0.713786 0.697335 0.709102 0.704167
          0.706867 0.6907 0.70407 0.726553 0.7 0.711338
          0.708576 0.702488 0.706606 0.69558 0.710452 0.706402
          0.698876 0.720281 0.716066 0.710452 0.306291 0.656785
          0.683251 0.694988 0.691995 0.68571 0.684355 0.685194
          0.694825 0.700463 0.711118 0.70548 0.705187 0.699769
          0.709776 0.705638 0.719181 0.689307 0.700453 0.699326
          0.701032 0.706543 0.701276 0.711962 0.715354 0.708981
          0.70063 0.703417 0.697373 0.70452 0.707587 0.705403
          0.713339 0.699623 0.320125 0.667898 0.700558 0.692602
          0.697191 0.70645 0.707142 0.692819 0.690589 0.692292
          0.693736 0.688448 0.707049 0.705643 0.700299 0.702696
          0.700989 0.702979 0.713612 0.695553 0.70994 0.712606
          0.717117 0.706718 0.712758 0.709174 0.711549 0.702219
          0.703887 0.716752 0.706705 0.697243 0.710668 0.700894
          0.323649 0.692461 0.692289 0.701083 0.714215 0.702314
          0.704024 0.692744 0.688671 0.707259 0.694104 0.705059
          0.699393 0.699066 0.695652 0.691277 0.699509 0.708991
          0.696711 0.697147 0.711657 0.715281 0.6916 0.701587
          0.709937 0.71538 0.704413 0.726492 0.709323 0.710023
          0.704777 0.717754 0.711706 0.713126 0.331423 0.679661
          0.693506 0.703066 0.70349 0.68906 0.701585 0.697748
          0.69499 0.698752 0.693915 0.700332 0.704944 0.696384
          0.701593 0.691975 0.685316 0.702611 0.704744 0.694762
          0.70843 0.715038 0.699532 0.706832 0.70362 0.713279
          0.706414 0.715366 0.70485 0.706984 0.695566 0.701369
          0.703558 0.713051 0.33044 0.674416 0.687235 0.683828
          0.686673 0.687333 0.695821 0.694684 0.686569 0.7059
          0.707088 0.691707 0.708003 0.706443 0.682954 0.70178
          0.6846 0.69932 0.709865 0.704562 0.708315 0.705833
          0.709324 0.712258 0.703145 0.70465 0.6939 0.70747
          0.70485 0.691265 0.71373 0.698116 0.705197 0.7171
          0.33087 0.683401 0.703154 0.701983 0.700029 0.708004
          0.693363 0.716902 0.69675 0.690767 0.696036 0.719809
          0.688857 0.724148 0.699859 0.696316 0.692089 0.708355
          0.700684 0.695163 0.715803 0.709391 0.709753 0.69825
          0.71182 0.708174 0.726745 0.719631 0.703251 0.703025
          0.690368 0.70948 0.707596 0.69481 0.328065 0.666338
          0.676433 0.684247 0.680776 0.711164 0.690858 0.686037
          0.69317 0.696173 0.699381 0.706478 0.68941 0.705135
          0.698372 0.691693 0.711621 0.681156 0.702037 0.704228
          0.702219 0.710274 0.726033 0.698413 0.700135 0.70918
          0.720383 0.701585 0.715745 0.701869 0.696465 0.708407
          0.695491 0.702434 0.329105 0.71049 0.698352 0.707096
          0.684897 0.708225 0.702736 0.699997 0.681408 0.705475
          0.697898 0.712779 0.697495 0.697902 0.691632 0.707199
          0.69678 0.700359 0.708093 0.696613 0.688095 0.701448
          0.713978 0.698662 0.709429 0.717694 0.689308 0.708462
          0.703657 0.701512 0.714925 0.712563 0.720562 0.717016
          0.325784 0.667316 0.699834 0.699388 0.693107 0.683912
          0.691246 0.705792 0.716356 0.702526 0.693882 0.692948
          0.6997 0.69253 0.691843 0.703598 0.696563 0.690868
          0.690314 0.71439 0.691706 0.704778 0.702001 0.711739
          0.69959 0.694205 0.703895 0.697141 0.692869 0.705518
          0.674639 0.703038 0.703836 0.68913 0.330887 0.670465
          0.702462 0.70635 0.697645 0.715017 0.686438 0.704302