<?xml version="1.0"?>
<VTKFile type="PolyData" version="0.1" byte_order="LittleEndian" header_type="UInt32" compressor="vtkZLibDataCompressor">
  <PolyData>
    <Piece NumberOfPoints="7920" NumberOfVerts="0" NumberOfLines="0" NumberOfStrips="0" NumberOfPolys="0">
      <PointData Scalars="Calcium Concentration">
        <DataArray type="Float32" Name="Calcium Concentration" format="ascii" RangeMin="0.6205099821090698" RangeMax="0.7373909950256348">
          0.658356 0.700985 0.698381 0.706383 0.702644 0.706742
          0.703092 0.700333 0.704386 0.695887 0.700571 0.698408
          0.704988 0.699526 0.701178 0.6965 0.709612 0.694283
          0.692851 0.716339 0.686897 0.69022 0.682117 0.684335
          0.687839 0.687213 0.701902 0.69247 0.693006 0.706659
          0.707987 0.703399 0.687341 0.673239 0.699145 0.695961
          0.701773 0.697255 0.699324 0.694046 0.698045 0.693059
          0.700366 0.692335 0.700585 0.703541 0.69424 0.712921
          0.693583 0.705872 0.71177 0.68233 0.704931 0.687768
          0.692723 0.677309 0.680404 0.687708 0.683429 0.695585
          0.684454 0.696015 0.70302 0.682657 0.688404 0.701193
          0.636724 0.685367 0.689158 0.688026 0.693708 0.687971
          0.684931 0.699455 0.709249 0.694165 0.695327 0.693197
          0.692732 0.701238 0.721681 0.703116 0.724282 0.704792
          0.703351 0.706893 0.708298 0.719121 0.719215 0.693297
          0.718305 0.709335 0.713859 0.702232 0.707101 0.703928
          0.717624 0.709359 0.705515 0.662711 0.688953 0.687328
          0.706176 0.701124 0.696862 0.707339 0.70353 0.70241
          0.697805 0.692961 0.706618 0.710255 0.697791 0.704346
          0.69654 0.706265 0.704874 0.697765 0.70515 0.700015
          0.688474 0.696582 0.696681 0.689372 0.706505 0.703135
          0.694132 0.695547 0.703452 0.693978 0.694987 0.695112
          0.635823 0.687414 0.684297 0.687687 0.680828 0.688112
          0.680944 0.711544 0.693092 0.696189 0.708297 0.701866
          0.7115 0.696087 0.709654 0.686885 0.698989 0.701053
          0.695188 0.702336 0.693489 0.699813 0.685427 0.696851
          0.685834 0.691746 0.680304 0.692603 0.682262 0.699491
          0.691169 0.700539 0.69534 0.666383 0.701161 0.704334
          0.709733 0.704957 0.69005 0.694677 0.691079 0.706086
          0.706114 0.703825 0.703181 0.6999 0.691691 0.711634
          0.695594 0.697016 0.683125 0.706586 0.686595 0.709603
          0.703366 0.704188 0.700569 0.710644 0.700186 0.70471
          0.706723 0.701749 0.714759 0.714989 0.696904 0.709901
          0.640034 0.676743 0.677416 0.691291 0.688247 0.694606
          0.688203 0.691012 0.718985 0.699801 0.692505 0.706489
          0.698009 0.708262 0.693124 0.699463 0.695395 0.693081
          0.688695 0.696078 0.701836 0.706792 0.704484 0.704491
          0.70502 0.72362 0.703964 0.725117 0.718551 0.712178
          0.717176 0.71789 0.711426 0.649196 0.680009 0.69601
          0.681077 0.700972 0.698134 0.684429 0.680496 0.708221
          0.70837 0.688745 0.697838 0.697624 0.691969 0.707194
          0.698129 0.704121 0.697822 0.69169 0.703719 0.695888
          0.686405 0.676826 0.687522 0.69853 0.696987 0.690882
          0.690995 0.691577 0.689243 0.687248 0.687163 0.694112
          0.65815 0.689222 0.690716 0.680502 0.683488 0.690851
          0.681406 0.697165 0.707988 0.696478 0.696576 0.698851
          0.701754 0.694392 0.69614 0.69554 0.697572 0.697678
          0.699375 0.701279 0.695642 0.7023 0.713045 0.688737
          0.711077 0.715319 0.709357 0.713351 0.711131 0.717863
          0.708976 0.708205 0.714681 0.655492 0.70051 0.701106
          0.715026 0.708002 0.690462 0.697327 0.698036 0.686026
          0.693516 0.703747 0.694261 0.704486 0.697143 0.710867
          0.706551 0.701409 0.701365 0.672283 0.705375 0.702308
          0.692678 0.698786 0.702234 0.708455 0.708449 0.701985
          0.701041 0.695796 0.715455 0.703409 0.706686 0.705029
          0.663938 0.701734 0.696528 0.699314 0.695779 0.691972
          0.709815 0.69401 0.699765 0.700932 0.689687 0.697924
          0.700289 0.704041 0.698233 0.704361 0.686406 0.69936
          0.698053 0.69595 0.711315 0.713696 0.719734 0.712181
          0.694246 0.716967 0.703454 0.708234 0.710744 0.720711
          0.697878 0.709521 0.699147 0.646834 0.683595 0.688373
          0.684899 0.683506 0.685981 0.685608 0.69596 0.694969
          0.700935 0.704818 0.688461 0.693338 0.699322 0.712359
          0.690985 0.695205 0.697968 0.68899 0.704248 0.688663
          0.707292 0.69698 0.692727 0.681207 0.704424 0.686154
          0.681792 0.691823 0.697217 0.689515 0.703156 0.706167
          0.658417 0.698441 0.688943 0.707222 0.690068 0.70422
          0.707469 0.703184 0.698537 0.707638 0.698321 0.703213
          0.702066 0.705789 0.688816 0.706607 0.702166 0.699481
          0.680492 0.702539 0.686427 0.694965 0.684687 0.688831
          0.700688 0.706751 0.696143 0.699218 0.686853 0.703451
          0.700852 0.701458 0.702236 0.668559 0.707344 0.699509
          0.715988 0.695745 0.698765 0.692156 0.716442 0.707673
          0.696335 0.694112 0.695316 0.705395 0.703266 0.716228
          0.696014 0.681702 0.696502 0.696846 0.695352 0.693847
          0.69174 0.681785 0.672604 0.68384 0.696201 0.698592
          0.691657 0.683005 0.687239 0.687561 0.68632 0.693218
          0.641192 0.683589 0.701989 0.690467 0.678261 0.691
          0.695343 0.696852 0.691297 0.703662 0.716262 0.706294
          0.696069 0.700003 0.699878 0.712973 0.699838 0.699698
          0.710089 0.699278 0.703208 0.711263 0.710609 0.708338
          0.715948 0.699148 0.709904 0.719033 0.718342 0.717679
          0.708064 0.70196 0.700363 0.654928 0.70303 0.688564
          0.710108 0.690792 0.69984 0.703806 0.715179 0.715936
          0.695538 0.711422 0.698406 0.694779 0.695221 0.708944
          0.704987 0.705619 0.703456 0.704011 0.702574 0.678451
          0.69307 0.685061 0.693563 0.687308 0.689206 0.685581
          0.690802 0.694113 0.687902 0.691272 0.682207 0.684965
          0.637562 0.687628 0.68291 0.681628 0.691798 0.691839
          0.692278 0.694151 0.691152 0.69928 0.700049 0.695383
          0.712479 0.684989 0.695865 0.702373 0.697426 0.718677
          0.699068 0.69877 0.702056 0.694815 0.682159 0.693855
          0.683258 0.690781 0.697224 0.706344 0.700218 0.706829
          0.705664 0.690402 0.707859 0.653576 0.694723 0.667209
          0.687932 0.711098 0.684319 0.691889 0.689815 0.705069
          0.698096 0.693112 0.699141 0.696724 0.700818 0.684528
          0.694867 0.699931 0.700857 0.703557 0.689259 0.703019
          0.703684 0.703403 0.710142 0.724401 0.712336 0.695229
          0.709734 0.706537 0.719803 0.716172 0.722157 0.717073
          0.640034 0.69485 0.681987 0.680385 0.688392 0.690721
          0.686911 0.710357 0.702687 0.701072 0.706238 0.694181
          0.69877 0.696328 0.7031 0.696142 0.704479 0.695977
          0.691091 0.704083 0.688924 0.692933 0.683144 0.683611
          0.696159 0.682445 0.689905 0.687374 0.696508 0.695369
          0.696279 0.703085 0.704356 0.660069 0.703322 0.698733
          0.693909 0.707623 0.702159 0.691524 0.688302 0.714247
          0.705376 0.692861 0.705854 0.693936 0.697241 0.703773
          0.703768 0.70704 0.696114 0.699375 0.687334 0.696815
          0.682549 0.684981 0.695003 0.683465 0.693205 0.681631
          0.698446 0.687531 0.684473 0.69054 0.682173 0.686998
          0.663273 0.701267 0.708342 0.694685 0.706946 0.685986
          0.710232 0.698046 0.690063 0.693359 0.699656 0.699285
          0.703385 0.69671 0.69219 0.704645 0.707782 0.71358
          0.701349 0.699413 0.690981 0.681244 0.682933 0.686907
          0.701697 0.684818 0.681035 0.695246 0.693312 0.702785
          0.692358 0.695381 0.692816 0.654515 0.70716 0.69126
          0.704562 0.698269 0.704798 0.710595 0.688253 0.705469
          0.703752 0.688211 0.715468 0.691888 0.702293 0.712461
          0.692072 0.700106 0.694603 0.71499 0.695965 0.708835
          0.705356 0.718415 0.696794 0.709195 0.712271 0.696288
          0.719757 0.707134 0.725123 0.704703 0.71005 0.707477
          0.671276 0.689562 0.706497 0.707046 0.700337 0.692494
          0.698662 0.702215 0.702387 0.702543 0.69851 0.699935
          0.713561 0.696776 0.678278 0.719661 0.694622 0.698219
          0.697445 0.698396 0.71242 0.69157 0.714616 0.697033
          0.70566 0.710262 0.71096 0.70337 0.714362 0.72901
          0.722367 0.724145 0.711248 0.662952 0.70406 0.690002
          0.697801 0.695019 0.701538 0.710675 0.694651 0.70463
          0.690962 0.710562 0.703157 0.718521 0.703454 0.702772
          0.704039 0.688559 0.699125 0.686989 0.7032 0.716275
          0.721045 0.706234 0.708284 0.715905 0.713654 0.720797
          0.716385 0.700116 0.708855 0.715854 0.70997 0.702237
          0.654877 0.696932 0.682728 0.70532 0.698362 0.704304
          0.696106 0.7006 0.709098 0.695713 0.697134 0.681936
          0.697164 0.686792 0.698444 0.704791 0.700779 0.700529
          0.699915 0.700051 0.684979 0.68316 0.707987 0.673696
          0.696537 0.692282 0.701792 0.686804 0.690184 0.699962
          0.685863 0.691916 0.686713 0.653457 0.696034 0.700851
          0.701168 0.705791 0.695887 0.707141 0.693688 0.714475
          0.697927 0.710937 0.693952 0.702353 0.701296 0.703502
          0.695376 0.701654 0.702105 0.712322 0.704077 0.692741
          0.689527 0.685314 0.690446 0.688874 0.69928 0.694212
          0.705195 0.699751 0.695458 0.682497 0.704342 0.695629
          0.663274 0.69794 0.695729 0.706141 0.708119 0.692887
          0.689073 0.693462 0.69881 0.702488 0.690014 0.701018
          0.690153 0.706349 0.69614 0.705315 0.710935 0.682653
          0.695051 0.700781 0.693489 0.688813 0.688626 0.681592
          0.692973 0.684492 0.689536 0.682943 0.676148 0.694497
          0.686579 0.691165 0.687186 0.657422 0.690733 0.688081
          0.685243 0.692866 0.692725 0.697422 0.693734 0.707765
          0.691674 0.696082 0.697017 0.695416 0.698495 0.697621
          0.696805 0.703863 0.688727 0.69571 0.70468 0.689565
          0.68655 0.688036 0.688549 0.685424 0.687396 0.68632
          0.694542 0.686983 0.716754 0.704668 0.678056 0.704782
          0.655781 0.704976 0.697746 0.688003 0.707371 0.697521
          0.708485 0.70417 0.713178 0.702699 0.690685 0.702389
          0.704132 0.695682 0.696769 0.698329 0.69496 0.702698
          0.695521 0.707246 0.689278 0.693002 0.677743 0.699248
          0.693929 0.678464 0.688966 0.702864 0.699792 0.691359
          0.697114 0.683219 0.684454 0.657906 0.702079 0.700958
          0.702678 0.694193 0.701026 0.69969 0.699727 0.706793
          0.69104 0.704117 0.706842 0.698413 0.674744 0.708104
          0.706299 0.702746 0.713362 0.69631 0.699714 0.692232
          0.689909 0.689082 0.693843 0.691165 0.684433 0.703224
          0.702771 0.697983 0.692702 0.689765 0.683061 0.684847
          0.643971 0.68618 0.684696 0.697778 0.68897 0.687269
          0.684446 0.691017 0.682042 0.710012 0.707241 0.691969
          0.701443 0.704498 0.707476 0.691889 0.706049 0.699697
          0.710496 0.700109 0.719231 0.706763 0.704412 0.720829
          0.717693 0.712637 0.7092 0.711915 0.717594 0.696044
          0.694027 0.700105 0.724131 0.639789 0.691398 0.684459
          0.680931 0.694438 0.690893 0.694115 0.683118 0.692151
          0.685235 0.692708 0.691348 0.696447 0.68754 0.696559
          0.692162 0.714851 0.696204 0.697988 0.69733 0.705072
          0.721227 0.714366 0.683075 0.70482 0.698076 0.711618
          0.708716 0.708924 0.720213 0.712967 0.71227 0.701714
          0.66144 0.70298 0.693676 0.699687 0.709009 0.704764
          0.698489 0.684633 0.713214 0.70206 0.702283 0.70451
          0.691785 0.698785 0.704265 0.702656 0.703401 0.706108
          0.696172 0.701465 0.702981 0.709353 0.712911 0.694592
          0.702739 0.700246 0.701106 0.699541 0.710884 0.711521
          0.717024 0.707409 0.701402 0.647199 0.686556 0.695687
          0.692427 0.6865 0.694613 0.690714 0.702356 0.678124
          0.712314 0.704525 0.690586 0.695408 0.696755 0.704277
          0.699906 0.702565 0.701634 0.687604 0.712433 0.69439
          0.693713 0.702946 0.707428 0.690009 0.708205 0.690981
          0.696198 0.696206 0.693262 0.682049 0.701654 0.697786
          0.651639 0.697757 0.690147 0.676224 0.683925 0.684559
          0.688165 0.690485 0.706034 0.69038 0.704663 0.69312
          0.704518 0.699347 0.699285 0.699596 0.685003 0.703921
          0.69818 0.711921 0.702443 0.692386 0.686081 0.682198
          0.695781 0.694968 0.695144 0.681736 0.705128 0.68027
          0.693586 0.682795 0.690627 0.627251 0.679253 0.700707
          0.705297 0.700766 0.681831 0.697271 0.699127 0.690734
          0.684288 0.69636 0.69789 0.709737 0.708781 0.708074
          0.696713 0.705944 0.698729 0.699247 0.699681 0.696889
          0.692813 0.701344 0.711844 0.707838 0.696298 0.698231
          0.685707 0.702708 0.692724 0.68613 0.694825 0.69175
          0.64697 0.698543 0.703652 0.702092 0.695038 0.704785
          0.69954 0.695892 0.703357 0.704336 0.706479 0.68988
          0.703241 0.712392 0.699562 0.692778 0.696421 0.696226
          0.707902 0.702376 0.677885 0.693639 0.688136 0.687406
          0.69943 0.685629 0.678497 0.695942 0.692505 0.698019
          0.686685 0.693634 0.686497 0.62051 0.678641 0.691831
          0.705321 0.684425 0.69649 0.686734 0.705996 0.702025
          0.688775 0.680734 0.705998 0.70087 0.703067 0.700488
          0.693191 0.698223 0.694817 0.711889 0.693714 0.705306
          0.698636 0.705941 0.714731 0.70924 0.71144 0.723877
          0.722459 0.709507 0.703662 0.71314 0.711574 0.718191
          0.666245 0.703245 0.701025 0.706542 0.689373 0.701551
          0.69896 0.696032 0.706406 0.699885 0.706628 0.695519
          0.682318 0.707791 0.689398 0.704658 0.69895 0.71097
          0.703098 0.703414 0.697185 0.698189 0.702588 0.705949
          0.701603 0.700673 0.688843 0.685283 0.690013 0.698726
          0.67567 0.706357 0.681772 0.660077 0.698832 0.706522
          0.693382 0.705171 0.698662 0.691571 0.703944 0.690011
          0.704242 0.698681 0.711282 0.695629 0.689633 0.71486
          0.696386 0.71191 0.693001 0.701742 0.710455 0.687243
          0.689449 0.683247 0.698142 0.683948 0.694324 0.692075
          0.685167 0.68787 0.709338 0.711617 0.69023 0.690425
          0.647932 0.706098 0.702116 0.707357 0.694144 0.689914
          0.698014 0.701432 0.70052 0.704515 0.699352 0.696573
          0.706404 0.71196 0.697625 0.709851 0.699257 0.699575
          0.697649 0.704525 0.693894 0.696492 0.700845 0.700932
          0.687662 0.713773 0.677006 0.694599 0.700861 0.687215
          0.683865 0.684771 0.694377 0.663463 0.71515 0.695656
          0.69377 0.698086 0.702394 0.70469 0.696923 0.708388
          0.702076 0.702982 0.707604 0.704685 0.6883 0.71241
          0.705323 0.715765 0.693698 0.689862 0.689195 0.720333
          0.716876 0.691741 0.71268 0.72089 0.713582 0.711008
          0.711251 0.705308 0.718506 0.709466 0.699215 0.719425
          0.661086 0.695652 0.693037 0.701581 0.706644 0.698573
          0.688622 0.700775 0.708347 0.721155 0.703476 0.708184
          0.688755 0.713338 0.689134 0.704885 0.715354 0.691004
          0.692329 0.686887 0.68834 0.691953 0.694962 0.686362
          0.70947 0.692968 0.684592 0.683572 0.690621 0.696418
          0.702014 0.6929 0.672528 0.661779 0.692263 0.691622
          0.695987 0.707267 0.695773 0.700762 0.697257 0.699279
          0.698472 0.703896 0.698271 0.70538 0.687013 0.707937
          0.700662 0.696456 0.703843 0.686358 0.69545 0.714615
          0.707534 0.707593 0.707657 0.713133 0.709507 0.691476
          0.710973 0.703228 0.703025 0.704449 0.706359 0.708685
          0.631808 0.679649 0.704656 0.689522 0.69342 0.695682
          0.696728 0.69996 0.697434 0.695493 0.688463 0.683703
          0.706775 0.708187 0.706344 0.691248 0.695247 0.695678
          0.700407 0.700071 0.708792 0.714297 0.708282 0.733946
          0.70941 0.707016 0.729379 0.720628 0.718698 0.702889
          0.705633 0.703227 0.704193 0.634067 0.683843 0.685272
          0.689412 0.693715 0.700397 0.693257 0.687219 0.687056
          0.715255 0.703522 0.686624 0.706793 0.692965 0.718684
          0.688959 0.702072 0.683057 0.707853 0.697966 0.716143
          0.706819 0.712446 0.69375 0.716011 0.719126 0.710851
          0.698892 0.717703 0.710217 0.704013 0.709845 0.719037
          0.647505 0.684625 0.685742 0.684387 0.684778 0.674776
          0.694197 0.702492 0.711682 0.697975 0.69598 0.69586
          0.69869 0.703152 0.694268 0.708263 0.7067 0.695113
          0.688751 0.703716 0.703767 0.72087 0.711614 0.70248
          0.71038 0.698467 0.701841 0.713745 0.708508 0.71177
          0.702154 0.704742 0.723676 0.673738 0.69749 0.69397
          0.70644 0.707417 0.697322 0.688308 0.696909 0.701413
          0.693667 0.6983 0.700324 0.703336 0.701159 0.696256
          0.705299 0.702555 0.702097 0.704495 0.701485 0.700903
          0.729522 0.715809 0.694451 0.712812 0.702363 0.714393
          0.702033 0.707183 0.718067 0.713722 0.707601 0.719062
          0.643374 0.674472 0.706157 0.699287 0.700576 0.701058
          0.681072 0.679226 0.681662 0.710336 0.710546 0.702774
          0.699903 0.687305 0.71585 0.692765 0.694958 0.700866
          0.696901 0.690266 0.705232 0.676627 0.698661 0.701719
          0.686423 0.692204 0.695303 0.678291 0.679701 0.687399
          0.698671 0.694427 0.696615 0.655558 0.69466 0.698166
          0.698253 0.698471 0.699799 0.716019 0.70826 0.697639
          0.688161 0.690595 0.687352 0.69982 0.710654 0.701804
          0.696998 0.693167 0.687941 0.700214 0.694731 0.708009
          0.695974 0.686724 0.692253 0.694793 0.701122 0.704244
          0.702671 0.701062 0.697279 0.687473 0.681937 0.694962
          0.647102 0.688028 0.6908 0.701156 0.69294 0.680671
          0.696808 0.707313 0.681918 0.685169 0.687369 0.684733
          0.699865 0.7084 0.710919 0.693294 0.695714 0.704136
          0.702284 0.693766 0.690404 0.693583 0.700079 0.702053
          0.695112 0.688516 0.695401 0.690826 0.712537 0.684022
          0.690958 0.695437 0.708098 0.633726 0.691903 0.684423
          0.709694 0.687059 0.689554 0.689768 0.684344 0.687957
          0.69826 0.716248 0.685916 0.709037 0.721215 0.711647
          0.69077 0.69347 0.708819 0.702446 0.69522 0.718012
          0.704345 0.701706 0.714657 0.721449 0.702373 0.713746
          0.707485 0.716208 0.689974 0.703332 0.709761 0.703746
          0.626786 0.684164 0.701675 0.696907 0.677902 0.679158
          0.683831 0.706139 0.693755 0.699824 0.698599 0.70619
          0.714868 0.707514 0.69825 0.702518 0.700118 0.696518
          0.700735 0.704527 0.700865 0.70087 0.701405 0.706115
          0.686102 0.67792 0.700882 0.69364 0.687072 0.704878
          0.695395 0.692721 0.71059 0.657028 0.693529 0.685193
          0.692165 0.686171 0.705349 0.681267 0.672016 0.709924
          0.706989 0.702657 0.703833 0.699213 0.697778 0.707475
          0.703861 0.69719 0.693594 0.690481 0.70815 0.699978
          0.687182 0.70045 0.670973 0.700316 0.696162 0.697585
          0.680795 0.69001 0.697107 0.701642 0.703602 0.689812
          0.670015 0.705091 0.702058 0.685499 0.708001 0.701526
          0.715251 0.690355 0.722311 0.700007 0.697599 0.700897
          0.699713 0.691341 0.704656 0.706665 0.700444 0.689044
          0.699071 0.702529 0.700738 0.707246 0.696799 0.707818
          0.716975 0.713835 0.702522 0.701233 0.708718 0.722022
          0.707715 0.711456 0.717748 0.669376 0.707263 0.696809
          0.699659 0.7019 0.690057 0.694574 0.694451 0.720189
          0.704615 0.701549 0.707982 0.68687 0.699415 0.689997
          0.712597 0.700806 0.688623 0.683518 0.693313 0.708462
          0.706615 0.695029 0.716623 0.682368 0.705679 0.70926
          0.708965 0.710916 0.719488 0.710772 0.717412 0.710255
          0.629588 0.68434 0.703286 0.692815 0.685136 0.695496
          0.687453 0.693832 0.689729 0.703084 0.688011 0.707397
          0.702703 0.704154 0.710497 0.69536 0.703075 0.704122
          0.69656 0.701978 0.70081 0.68961 0.68712 0.707946
          0.711526 0.704099 0.710337 0.703383 0.705191 0.683856
          0.709319 0.699074 0.703663 0.66937 0.705414 0.712958
          0.698591 0.697129 0.709574 0.706869 0.718069 0.69066
          0.70806 0.699157 0.692894 0.703401 0.687763 0.707528
          0.708715 0.69273 0.68725 0.703683 0.690307 0.711054
          0.707047 0.705487 0.710274 0.712275 0.703899 0.701171
          0.712605 0.701742 0.705588 0.71186 0.716945 0.715785
          0.644914 0.68873 0.682467 0.678033 0.681409 0.694798
          0.683674 0.709002 0.70819 0.69808 0.710178 0.701594
          0.69598 0.695718 0.686182 0.723754 0.699951 0.69269
          0.701656 0.698486 0.708084 0.687689 0.687316 0.689215
          0.687123 0.682138 0.685839 0.692502 0.686997 0.690115
          0.688473 0.687548 0.697171 0.650886 0.708428 0.697271
          0.696504 0.706709 0.685914 0.692407 0.705486 0.700314
          0.706812 0.69705 0.702097 0.712546 0.694162 0.685605
          0.697916 0.700107 0.703825 0.704154 0.697524 0.687345
          0.692794 0.69275 0.690392 0.691518 0.692568 0.695495
          0.684321 0.692093 0.690969 0.680972 0.68935 0.686781
          0.660661 0.706242 0.698642 0.700831 0.709281 0.691175
          0.68895 0.698148 0.699004 0.701247 0.699569 0.702768
          0.703735 0.696278 0.699469 0.699511 0.699202 0.694707
          0.70693 0.703909 0.693854 0.693989 0.687939 0.693882
          0.697059 0.691612 0.695847 0.679483 0.683531 0.678354
          0.681784 0.702696 0.687826 0.680708 0.703103 0.700113
          0.691753 0.708175 0.675608 0.698035 0.707581 0.698219
          0.706053 0.701522 0.696257 0.705791 0.695213 0.700773
          0.708745 0.703787 0.692594 0.70852 0.697197 0.68387
          0.691569 0.674112 0.691946 0.691421 0.696535 0.690269
          0.68737 0.697821 0.704961 0.69694 0.675334 0.684027
          0.632117 0.683253 0.705985 0.697702 0.683391 0.688151
          0.696349 0.690178 0.686865 0.686365 0.715234 0.686775
          0.709342 0.683114 0.692635 0.697227 0.708361 0.704499
          0.707356 0.689431 0.708814 0.708458 0.71659 0.714957
          0.707204 0.722907 0.714218 0.728185 0.712922 0.708103
          0.72565 0.714146 0.709442 0.641684 0.677057 0.685654
          0.690092 0.669278 0.690119 0.704537 0.708141 0.691786
          0.695652 0.707338 0.690009 0.697102 0.716974 0.69287
          0.70805 0.691888 0.707646 0.696044 0.705811 0.687981
          0.675286 0.684566 0.701705 0.692233 0.696629 0.695606
          0.695109 0.689306 0.68438 0.70028 0.695341 0.692361
          0.649379 0.685298 0.686184 0.700606 0.690579 0.688184
          0.682291 0.686386 0.691118 0.690225 0.700608 0.701723
          0.711853 0.693431 0.708374 0.699173 0.701637 0.700958
          0.690839 0.698555 0.714277 0.715027 0.700798 0.731184
          0.715344 0.698302 0.708013 0.695005 0.713985 0.726389
          0.721236 0.708398 0.707759 0.632488 0.692845 0.704901
          0.701949 0.69883 0.705862 0.718508 0.702013 0.685398
          0.70789 0.692813 0.70294 0.713451 0.703431 0.716558
          0.689831 0.712839 0.709937 0.705142 0.70465 0.701648
          0.70409 0.700557 0.706205 0.710082 0.693432 0.688856
          0.697476 0.692383 0.691395 0.673048 0.689507 0.6965
          0.655881 0.696363 0.698775 0.699524 0.700859 0.696476
          0.706124 0.708071 0.691169 0.70086 0.698307 0.696337
          0.700561 0.695931 0.719541 0.686894 0.696175 0.700061
          0.699065 0.696226 0.686643 0.709366 0.697603 0.692894
          0.688409 0.706481 0.686995 0.699493 0.690812 0.689917
          0.686786 0.706331 0.69426 0.649742 0.709024 0.694094
          0.697137 0.697125 0.704965 0.706059 0.704166 0.693524
          0.693224 0.708757 0.696019 0.706502 0.715906 0.686924
          0.696623 0.700173 0.692346 0.710047 0.713663 0.692232
          0.683127 0.703594 0.701094 0.70354 0.685269 0.701723
          0.689521 0.701357 0.692337 0.689966 0.69587 0.688347
          0.651716 0.701146 0.704759 0.690289 0.685792 0.692931
          0.68531 0.686914 0.686273 0.690312 0.692059 0.700456
          0.707867 0.701903 0.690984 0.704357 0.710174 0.6883
          0.708087 0.691595 0.697591 0.704079 0.709242 0.707121
          0.696686 0.704769 0.70287 0.729011 0.716271 0.707721
          0.693123 0.722266 0.707988 0.645989 0.673163 0.682453
          0.688448 0.691527 0.700887 0.692315 0.695546 0.705804
          0.70559 0.707918 0.695488 0.697272 0.687597 0.68896
          0.702012 0.692522 0.702959 0.695554 0.697243 0.690564
          0.688639 0.689818 0.682241 0.692727 0.707335 0.679601
          0.691163 0.691985 0.693308 0.703027 0.690499 0.680019
          0.67154 0.70227 0.686103 0.696785 0.697458 0.694774
          0.69962 0.69746 0.697045 0.714403 0.681219 0.712352
          0.692738 0.696272 0.704369 0.697516 0.702115 0.678574
          0.69003 0.692707 0.68296 0.680639 0.685059 0.694632
          0.698337 0.679105 0.710124 0.680241 0.685232 0.696017
          0.693775 0.702256 0.687108 0.639588 0.695309 0.697306
          0.710558 0.698655 0.696594 0.701873 0.701265 0.68425
          0.702966 0.699068 0.698304 0.705125 0.706589 0.70405
          0.690601 0.693652 0.701677 0.715652 0.700153 0.695538
          0.712012 0.706158 0.705768 0.70517 0.69801 0.705965
          0.707275 0.697876 0.701634 0.695913 0.694541 0.694936
          0.665089 0.701093 0.696513 0.693317 0.705454 0.692405
          0.707456 0.700942 0.701598 0.687115 0.698868 0.707915
          0.694423 0.713013 0.712801 0.687359 0.702696 0.70239
          0.67923 0.692394 0.717207 0.705148 0.712261 0.715388
          0.717033 0.702292 0.692811 0.715427 0.707672 0.701599
          0.716018 0.713996 0.722408 0.636297 0.676596 0.69052
          0.692331 0.690276 0.680139 0.686541 0.695604 0.702092
          0.693464 0.695741 0.683781 0.694347 0.702348 0.698552
          0.705811 0.696204 0.709709 0.697127 0.702275 0.711645
          0.716924 0.712843 0.710375 0.711898 0.695182 0.705856
          0.699437 0.707198 0.712791 0.710283 0.718054 0.715505
          0.638175 0.694419 0.690264 0.673532 0.689838 0.701506
          0.694044 0.685719 0.686055 0.690854 0.703192 0.698971
          0.696434 0.702361 0.707772 0.689685 0.696098 0.694082
          0.701417 0.700614 0.71966 0.725149 0.719052 0.718824
          0.713309 0.707994 0.724726 0.6947 0.696013 0.710911
          0.708265 0.714148 0.714547 0.669774 0.706573 0.684999
          0.697217 0.693499 0.700656 0.697122 0.70642 0.705993
          0.697523 0.694358 0.697623 0.697803 0.704087 0.698683
          0.689473 0.713457 0.699335 0.702635 0.695639 0.714674
          0.707254 0.706789 0.698189 0.714708 0.713128 0.717868
          0.702849 0.699839 0.697815 0.710007 0.723552 0.70171
          0.654193 0.690709 0.711929 0.699905 0.698708 0.694384
          0.701706 0.712079 0.714207 0.67508 0.704597 0.697728
          0.713192 0.690939 0.700802 0.70135 0.705319 0.694592
          0.708415 0.705879 0.704286 0.704027 0.699549 0.709733
          0.704759 0.706513 0.714768 0.724077 0.712552 0.70624
          0.694452 0.71105 0.698592 0.647606 0.690776 0.671319
          0.68191 0.688746 0.689025 0.687694 0.713202 0.69839
          0.705392 0.674933 0.694889 0.705187 0.685521 0.696895
          0.693023 0.697615 0.688992 0.698117 0.715542 0.705924
          0.700572 0.716864 0.691796 0.698465 0.708362 0.707406
          0.703435 0.688506 0.710674 0.702768 0.705484 0.721608
          0.662751 0.696388 0.715678 0.685452 0.695386 0.698501
          0.720543 0.705175 0.686821 0.696639 0.699906 0.696822
          0.70728 0.695651 0.697841 0.700338 0.692977 0.708077
          0.698915 0.694409 0.712133 0.70813 0.700613 0.713618
          0.707466 0.709199 0.711721 0.699603 0.703848 0.701176
          0.703348 0.711675 0.71073 0.645876 0.67808 0.690896
          0.688235 0.694165 0.703064 0.684473 0.696597 0.684917
          0.694222 0.695848 0.690333 0.703554 0.708006 0.695256
          0.703449 0.699498 0.697309 0.704999 0.689826 0.704039
          0.711329 0.699355 0.695767 0.709003 0.721814 0.711845
          0.718037 0.714241 0.710291 0.694927 0.70651 0.703595
          0.661526 0.715215 0.704071 0.692751 0.721078 0.712067
          0.703489 0.705117 0.699164 0.697809 0.728252 0.697951
          0.685202 0.689851 0.703266 0.691367 0.70195 0.710174
          0.697123 0.685624 0.69331 0.707893 0.712551 0.699674
          0.723195 0.709281 0.701205 0.70727 0.694935 0.706696
          0.719134 0.71171 0.714431 0.629842 0.688334 0.684574
          0.71028 0.686518 0.699551 0.695602 0.703185 0.695214
          0.687998 0.69994 0.69033 0.699333 0.690061 0.700493
          0.692512 0.69703 0.702714 0.694629 0.692512 0.692746
          0.703766 0.705597 0.705792 0.706583 0.687631 0.704011
          0.708853 0.701312 0.677703 0.692967 0.701174 0.697242
          0.652568 0.703161 0.696014 0.703718 0.69438 0.693268
          0.706813 0.703262 0.705003 0.700416 0.707217 0.680214
          0.708223 0.691388 0.70815 0.708124 0.706748 0.708637
          0.711764 0.702467 0.687333 0.712054 0.690101 0.697869
          0.692104 0.691812 0.693617 0.694056 0.681582 0.691337
          0.684592 0.692627 0.699965 0.674482 0.6963 0.689255
          0.70845 0.691173 0.696163 0.69269 0.704257 0.705
          0.698174 0.690595 0.709523 0.685516 0.700145 0.700039
          0.699471 0.704059 0.693246 0.691567 0.707527 0.700891
          0.688688 0.69486 0.67979 0.69207 0.704093 0.69092
          0.686525 0.702857 0.707479 0.692416 0.704679 0.68539
          0.675367 0.705201 0.706345 0.688182 0.699834 0.701786
          0.706417 0.68947 0.707235 0.697784 0.701745 0.724261
          0.683975 0.695566 0.692257 0.711791 0.707732 0.694141
          0.697392 0.700848 0.685562 0.705185 0.695187 0.693885