<?xml version="1.0"?>
<VTKFile type="PolyData" version="0.1" byte_order="LittleEndian" header_type="UInt32" compressor="vtkZLibDataCompressor">
  <PolyData>
    <Piece NumberOfPoints="7920" NumberOfVerts="0" NumberOfLines="0" NumberOfStrips="0" NumberOfPolys="0">
      <PointData Scalars="Calcium Concentration">
        <DataArray type="Float32" Name="Calcium Concentration" format="ascii" RangeMin="0.5099629759788513" RangeMax="0.7352219820022583">
          0.53455 0.706739 0.700158 0.694989 0.701527 0.69575
          0.691006 0.708651 0.699693 0.686886 0.701419 0.704021
          0.69807 0.705201 0.699075 0.710296 0.689968 0.695615
          0.707996 0.697724 0.690481 0.675796 0.688825 0.689297
          0.68765 0.691442 0.699095 0.690874 0.686761 0.690696
          0.705763 0.68522 0.689843 0.544375 0.695132 0.696891
          0.696278 0.693032 0.700681 0.701147 0.706314 0.712067
          0.699039 0.691259 0.708659 0.690239 0.700979 0.712012
          0.687154 0.700605 0.69407 0.699497 0.706762 0.688908
          0.706666 0.681636 0.675722 0.679288 0.701874 0.704484
          0.686957 0.687632 0.700845 0.700539 0.683225 0.687245
          0.535175 0.684694 0.693776 0.680249 0.690572 0.689432
          0.692953 0.694002 0.700894 0.705805 0.697311 0.700336
          0.698585 0.700104 0.712135 0.705178 0.707381 0.713275
          0.722942 0.704902 0.71167 0.706374 0.712731 0.703066
          0.704699 0.711474 0.705897 0.700782 0.711095 0.703118
          0.709357 0.71209 0.708363 0.540267 0.688076 0.710089
          0.693704 0.698384 0.686282 0.711838 0.698233 0.713144
          0.705004 0.690995 0.694374 0.693629 0.700225 0.703066
          0.699638 0.697699 0.689224 0.701912 0.701973 0.706553
          0.686501 0.69096 0.688496 0.691392 0.713998 0.704284
          0.69831 0.698046 0.695324 0.700996 0.700325 0.697114
          0.537331 0.68968 0.685192 0.694613 0.684534 0.690828
          0.693698 0.691709 0.691886 0.709307 0.70348 0.695731
          0.7023 0.70043 0.693418 0.706627 0.709228 0.688119
          0.704048 0.699911 0.690278 0.69049 0.692621 0.6875
          0.687321 0.688815 0.678532 0.695738 0.69489 0.695143
          0.68991 0.696643 0.701163 0.551212 0.697202 0.694621
          0.69481 0.688129 0.71022 0.692298 0.699927 0.714214
          0.700655 0.688164 0.697942 0.700406 0.700789 0.699148
          0.703618 0.706979 0.69317 0.717273 0.699139 0.697019
          0.700882 0.700503 0.696347 0.697765 0.719638 0.71098
          0.697519 0.701637 0.71416 0.720188 0.708578 0.705827
          0.534528 0.68934 0.687451 0.68434 0.677102 0.683496
          0.677865 0.693715 0.71578 0.709425 0.687863 0.69209
          0.701378 0.717884 0.694114 0.6976 0.696103 0.695728
          0.702828 0.690244 0.706879 0.702316 0.693179 0.699594
          0.699632 0.711533 0.716636 0.718343 0.711437 0.700466
          0.716603 0.709538 0.717527 0.529175 0.684676 0.67395
          0.700183 0.692661 0.697506 0.68485 0.666628 0.709642
          0.694409 0.697791 0.720664 0.70282 0.70581 0.702762
          0.698535 0.706054 0.712988 0.709725 0.698687 0.691369
          0.687418 0.691647 0.691499 0.692345 0.697738 0.698079
          0.684087 0.684581 0.676027 0.704032 0.678175 0.688668
          0.524936 0.685607 0.689726 0.692832 0.690239 0.695164
          0.68224 0.702004 0.703818 0.698979 0.70341 0.713936
          0.70625 0.70916 0.70418 0.701565 0.707426 0.696229
          0.705727 0.688153 0.705561 0.705643 0.698347 0.702528
          0.719187 0.71428 0.699642 0.69886 0.708901 0.700897
          0.718418 0.704524 0.719033 0.547675 0.705167 0.697492
          0.699888 0.694068 0.694062 0.700267 0.70376 0.701115
          0.700993 0.718867 0.686689 0.692733 0.711146 0.684695
          0.700013 0.697208 0.700386 0.70162 0.697486 0.693331
          0.699323 0.696379 0.697137 0.715497 0.7203 0.708377
          0.706278 0.702809 0.707018 0.71236 0.701219 0.712482
          0.556896 0.706859 0.698424 0.705647 0.699135 0.702353
          0.705601 0.694813 0.695161 0.702861 0.704214 0.699974
          0.707212 0.692845 0.689585 0.705451 0.701747 0.705215
          0.700528 0.695317 0.708311 0.707115 0.720247 0.710549
          0.699685 0.712062 0.721167 0.703119 0.699406 0.704665
          0.716117 0.714323 0.720821 0.531087 0.688823 0.686572
          0.687435 0.673548 0.687304 0.69638 0.70836 0.697463
          0.700273 0.691603 0.70326 0.714669 0.703385 0.692891
          0.694201 0.707613 0.705925 0.700439 0.712393 0.69278
          0.683574 0.688357 0.686309 0.680187 0.692527 0.690837
          0.691584 0.682882 0.68689 0.689046 0.68806 0.697754
          0.548277 0.706379 0.684592 0.717713 0.683579 0.704918
          0.713212 0.702578 0.696967 0.691187 0.696624 0.699332
          0.709879 0.696159 0.694983 0.707362 0.700409 0.704839
          0.688286 0.713146 0.689576 0.699318 0.697449 0.679606
          0.699206 0.694052 0.685349 0.691162 0.705421 0.684878
          0.700554 0.692715 0.696627 0.54117 0.688133 0.681109
          0.694937 0.708539 0.693444 0.705241 0.700086 0.686413
          0.702941 0.702284 0.711368 0.702055 0.698403 0.704171
          0.701233 0.69254 0.696212 0.716318 0.690876 0.697528
          0.702789 0.67878 0.685961 0.692785 0.699064 0.686719
          0.69386 0.703056 0.690863 0.68466 0.693491 0.688693
          0.531539 0.68116 0.687962 0.68858 0.693374 0.682038
          0.68901 0.695851 0.682948 0.695971 0.694601 0.695811
          0.703559 0.712494 0.707522 0.688155 0.707237 0.707994
          0.692737 0.697095 0.71242 0.708553 0.706404 0.708454
          0.698819 0.711186 0.718758 0.716274 0.720629 0.719011
          0.710359 0.719367 0.722789 0.526896 0.695286 0.687269
          0.696784 0.707097 0.701209 0.691953 0.691305 0.688604
          0.702578 0.686251 0.685944 0.700013 0.708376 0.699763
          0.69618 0.689159 0.707425 0.691062 0.697489 0.689409
          0.677727 0.696057 0.685545 0.688745 0.691885 0.687829
          0.683298 0.684037 0.690338 0.694157 0.680325 0.687924
          0.541633 0.687072 0.685344 0.680579 0.68838 0.69355
          0.693701 0.699181 0.688533 0.695483 0.689589 0.702216
          0.699053 0.704907 0.704384 0.708619 0.699382 0.709921
          0.698051 0.688797 0.67949 0.681698 0.693815 0.689411
          0.698787 0.687355 0.697237 0.692959 0.699417 0.702665
          0.704693 0.686404 0.693644 0.520557 0.704292 0.677359
          0.673009 0.695008 0.682371 0.678803 0.709864 0.703848
          0.691034 0.699446 0.702209 0.691566 0.71967 0.694648
          0.715451 0.692909 0.694797 0.705602 0.696709 0.70255
          0.717694 0.701186 0.707134 0.706668 0.7172 0.701312
          0.703134 0.701616 0.701571 0.71745 0.705153 0.710093
          0.527555 0.687428 0.680717 0.684506 0.688168 0.679662
          0.678142 0.695656 0.686576 0.704125 0.699146 0.702252
          0.718002 0.698391 0.696501 0.69695 0.696879 0.709622
          0.698796 0.703949 0.688652 0.689622 0.682835 0.694273
          0.691199 0.695637 0.696313 0.684673 0.696261 0.686734
          0.707207 0.693462 0.709351 0.543672 0.693532 0.700225
          0.696622 0.70942 0.682641 0.70619 0.693621 0.703293
          0.699477 0.705166 0.709574 0.703525 0.712467 0.693107
          0.698095 0.689831 0.688992 0.707899 0.698068 0.692252
          0.689523 0.692093 0.687969 0.686841 0.687226 0.6973
          0.694859 0.682896 0.687769 0.692194 0.687171 0.691834
          0.542333 0.717677 0.70304 0.70137 0.712604 0.687258
          0.69452 0.706087 0.702985 0.691887 0.717415 0.697049
          0.699591 0.712929 0.692074 0.697556 0.70007 0.699865
          0.70123 0.699871 0.691134 0.696681 0.675362 0.693139
          0.690227 0.701395 0.678487 0.692034 0.695414 0.695679
          0.694876 0.683626 0.696111 0.54972 0.687633 0.697397
          0.687903 0.702387 0.707464 0.7146 0.690652 0.704413
          0.704307 0.686805 0.704263 0.700711 0.699076 0.708415
          0.695811 0.701049 0.695621 0.697175 0.702816 0.709817
          0.706893 0.714116 0.708551 0.695909 0.711125 0.719702
          0.697171 0.715309 0.70973 0.714252 0.703892 0.702773
          0.537905 0.705192 0.688735 0.714547 0.693687 0.696058
          0.703594 0.707431 0.698138 0.703039 0.704943 0.704679
          0.688159 0.719415 0.695663 0.716238 0.702375 0.694029
          0.699572 0.690344 0.720365 0.702737 0.711738 0.701517
          0.706923 0.719602 0.700569 0.702742 0.715967 0.712306
          0.722701 0.706435 0.711328 0.555603 0.715738 0.694059
          0.69897 0.713909 0.689808 0.705937 0.713034 0.702379
          0.705446 0.704072 0.695724 0.705292 0.709299 0.705296
          0.703599 0.691297 0.709365 0.68632 0.691594 0.705481
          0.699945 0.718159 0.700572 0.712691 0.728628 0.708288
          0.725958 0.725492 0.705925 0.717876 0.698115 0.70522
          0.53691 0.688245 0.692907 0.712785 0.709243 0.693081
          0.698683 0.702183 0.707782 0.715035 0.697951 0.696014
          0.703597 0.700326 0.711063 0.684314 0.706328 0.701896
          0.712052 0.706858 0.689255 0.692287 0.689024 0.695675
          0.698378 0.709535 0.697069 0.698622 0.69026 0.702389
          0.695608 0.681839 0.692836 0.545679 0.690482 0.70194
          0.693619 0.691575 0.688126 0.712517 0.696554 0.70406
          0.704578 0.700895 0.686619 0.704725 0.697913 0.705899
          0.695392 0.694755 0.696082 0.706397 0.700224 0.692631
          0.688995 0.682482 0.684866 0.687903 0.693458 0.689804
          0.69348 0.700188 0.698952 0.687882 0.69023 0.695939
          0.54072 0.705589 0.697256 0.694905 0.695261 0.701218
          0.699809 0.70304 0.707358 0.706198 0.690518 0.707488
          0.696319 0.717482 0.680325 0.703843 0.697347 0.700974
          0.707068 0.702292 0.688137 0.693648 0.683317 0.678398
          0.691585 0.692128 0.68741 0.683957 0.68738 0.689447
          0.688441 0.678936 0.685678 0.534318 0.693716 0.682307
          0.68802 0.706799 0.702451 0.693241 0.699969 0.693447
          0.696304 0.703538 0.696605 0.70132 0.71084 0.708909
          0.704177 0.702095 0.685739 0.715488 0.697861 0.682765
          0.696532 0.685763 0.687623 0.693847 0.686881 0.686585
          0.684925 0.686249 0.702642 0.695232 0.688889 0.691769
          0.534144 0.702437 0.698862 0.714326 0.701996 0.692721
          0.697476 0.703225 0.682688 0.712322 0.69292 0.695509
          0.711373 0.699238 0.717993 0.704419 0.695944 0.719858
          0.702359 0.694407 0.691377 0.680441 0.681056 0.695512
          0.685845 0.682748 0.686062 0.692935 0.703307 0.680572
          0.688024 0.696698 0.691931 0.538468 0.704714 0.700823
          0.692812 0.708556 0.693914 0.713032 0.682969 0.704832
          0.706463 0.702155 0.701973 0.68729 0.720508 0.69468
          0.698275 0.70279 0.696723 0.710861 0.688653 0.691283
          0.693764 0.675445 0.704364 0.690895 0.701392 0.691222
          0.693153 0.703737 0.707712 0.699058 0.689952 0.690926
          0.534265 0.68958 0.698843 0.697423 0.688762 0.689461
          0.690811 0.701583 0.683371 0.711917 0.698484 0.700604
          0.696329 0.700792 0.690537 0.707433 0.698212 0.70014
          0.699433 0.696708 0.704423 0.712939 0.708421 0.711839
          0.723089 0.717311 0.71385 0.698091 0.701419 0.70659
          0.698214 0.709522 0.709455 0.527145 0.678195 0.68805
          0.690603 0.699259 0.689357 0.703887 0.699399 0.681623
          0.692455 0.699356 0.711575 0.702777 0.712612 0.701661
          0.698768 0.692757 0.693777 0.699503 0.699215 0.71207
          0.721954 0.695803 0.689985 0.709756 0.712401 0.701516
          0.710521 0.707279 0.706973 0.718685 0.719489 0.709854
          0.53749 0.711455 0.686201 0.697433 0.699122 0.700092
          0.70596 0.680963 0.704208 0.710887 0.71239 0.683617
          0.698171 0.715127 0.702382 0.700962 0.691631 0.692857
          0.703007 0.692018 0.700062 0.713562 0.704499 0.69985
          0.697645 0.721385 0.708134 0.706853 0.707867 0.711087
          0.712836 0.711564 0.706266 0.528506 0.679229 0.679213
          0.695963 0.676702 0.697971 0.693711 0.698779 0.685673
          0.711222 0.698235 0.692061 0.699018 0.710343 0.698542
          0.690268 0.693654 0.708897 0.706806 0.698784 0.690235
          0.696715 0.69151 0.696469 0.699937 0.693946 0.685196
          0.696366 0.689225 0.681173 0.692927 0.684912 0.688513
          0.537704 0.700977 0.701475 0.679955 0.680067 0.686475
          0.707114 0.690492 0.693935 0.698619 0.696325 0.708562
          0.70476 0.696282 0.705318 0.695964 0.709721 0.703947
          0.696483 0.708069 0.698114 0.69892 0.680676 0.70082
          0.678686 0.686609 0.706225 0.693839 0.686809 0.694757
          0.69047 0.692403 0.689505 0.52361 0.675572 0.697116
          0.706603 0.684511 0.682904 0.690869 0.699349 0.699775
          0.700829 0.68008 0.694024 0.695487 0.687455 0.695793
          0.696749 0.70488 0.706548 0.695034 0.700093 0.703262
          0.70328 0.694987 0.713798 0.705848 0.702347 0.692478
          0.692395 0.693146 0.7123 0.700366 0.681934 0.699773
          0.53059 0.688473 0.704818 0.702552 0.704027 0.692744
          0.693443 0.701973 0.693018 0.704738 0.697859 0.709465
          0.705927 0.704116 0.70397 0.697217 0.708048 0.695405
          0.707324 0.706934 0.700195 0.690104 0.701586 0.673392
          0.691522 0.693923 0.687897 0.686201 0.704933 0.699186
          0.674324 0.681584 0.694054 0.52765 0.668272 0.694113
          0.685184 0.68125 0.693942 0.685685 0.687668 0.68976
          0.700437 0.690433 0.704968 0.708461 0.69976 0.694462
          0.711646 0.708538 0.703461 0.693106 0.695729 0.710898
          0.702322 0.718127 0.698796 0.708085 0.711318 0.732232
          0.726221 0.716204 0.695539 0.705687 0.706736 0.720177
          0.553685 0.702552 0.701828 0.713465 0.688317 0.703765
          0.703865 0.699601 0.706004 0.699879 0.693371 0.702338
          0.706426 0.70964 0.698729 0.704082 0.701974 0.693937
          0.706594 0.703569 0.697613 0.703838 0.68784 0.709914
          0.702094 0.690598 0.706145 0.699556 0.70048 0.705815
          0.696847 0.705582 0.679778 0.541428 0.698814 0.695301
          0.715818 0.698884 0.700493 0.699828 0.69763 0.714884
          0.694063 0.701911 0.692605 0.713965 0.693931 0.715196
          0.70447 0.685967 0.697328 0.701376 0.694076 0.689965
          0.715707 0.691337 0.691391 0.689291 0.698749 0.684064
          0.682046 0.695074 0.69043 0.703463 0.696553 0.693045
          0.526377 0.693277 0.688588 0.697215 0.707514 0.690261
          0.697653 0.689235 0.705564 0.702579 0.690675 0.702804
          0.720057 0.69582 0.698315 0.704729 0.70442 0.696246
          0.696979 0.711354 0.688947 0.702787 0.696784 0.701616
          0.685829 0.67938 0.689837 0.701169 0.690803 0.697247
          0.684847 0.688265 0.693894 0.547594 0.714721 0.70731
          0.695067 0.692792 0.710512 0.69848 0.701548 0.698545
          0.694952 0.70584 0.678199 0.700835 0.711133 0.680519
          0.694526 0.694836 0.689483 0.695674 0.712537 0.711714
          0.712611 0.706942 0.711951 0.697714 0.725993 0.710944
          0.702041 0.708014 0.712848 0.702055 0.704026 0.704514
          0.537485 0.701724 0.696492 0.697671 0.708498 0.689948
          0.702188 0.698725 0.697655 0.693133 0.705431 0.699609
          0.686794 0.71743 0.694012 0.684114 0.701816 0.705533
          0.713476 0.695651 0.691909 0.69496 0.691402 0.688284
          0.687043 0.70703 0.697207 0.693258 0.67666 0.704483
          0.69891 0.699911 0.682328 0.537969 0.708702 0.706472
          0.69765 0.699939 0.69012 0.696626 0.70685 0.705076
          0.706186 0.705528 0.701757 0.697855 0.706611 0.700438
          0.695766 0.692512 0.695417 0.707481 0.703991 0.715103
          0.706596 0.702003 0.70167 0.705867 0.716106 0.707208
          0.722389 0.702352 0.706358 0.708271 0.691551 0.718782
          0.526414 0.662867 0.700103 0.699669 0.684736 0.68873
          0.688592 0.69883 0.705759 0.701509 0.688423 0.692504
          0.685916 0.693663 0.705245 0.698498 0.7002 0.701632
          0.699308 0.691996 0.720476 0.700143 0.714777 0.722736
          0.715585 0.71683 0.714351 0.713446 0.718906 0.707286
          0.711656 0.725011 0.729364 0.533913 0.682477 0.679824
          0.683435 0.681411 0.692298 0.690601 0.700149 0.6926
          0.702862 0.703215 0.69465 0.708643 0.690259 0.703131
          0.699884 0.71195 0.705537 0.695937 0.703633 0.701785
          0.70922 0.70486 0.6963 0.708202 0.725576 0.710371
          0.705742 0.706393 0.711899 0.707652 0.711995 0.710299
          0.522068 0.679037 0.67699 0.683312 0.690414 0.683965
          0.698001 0.68899 0.697276 0.71305 0.696304 0.701334
          0.705516 0.706816 0.705551 0.700095 0.691848 0.698395
          0.710562 0.698465 0.705869 0.721032 0.717128 0.705179
          0.690292 0.708409 0.704707 0.703188 0.72048 0.712151
          0.702171 0.713186 0.709496 0.552229 0.712409 0.701137
          0.709814 0.71056 0.701752 0.691849 0.698607 0.701381
          0.690247 0.71105 0.699407 0.705127 0.718527 0.701545
          0.707345 0.684719 0.697728 0.692897 0.698492 0.702097
          0.705987 0.702554 0.700214 0.69798 0.712189 0.710232
          0.714091 0.710363 0.709569 0.710139 0.705556 0.711028
          0.527589 0.67947 0.706694 0.690016 0.686679 0.684198
          0.690756 0.679412 0.684085 0.689262 0.696071 0.682723
          0.699333 0.702374 0.707961 0.698096 0.69707 0.694328
          0.703428 0.709035 0.693711 0.696006 0.679989 0.694866
          0.700803 0.711509 0.686492 0.686832 0.692205 0.696181
          0.697626 0.690696 0.682333 0.552309 0.695707 0.703483
          0.709609 0.686957 0.707211 0.70615 0.699671 0.68883
          0.716866 0.705403 0.696093 0.708084 0.687618 0.717316
          0.691192 0.708684 0.701752 0.698724 0.696918 0.695157
          0.696305 0.690951 0.686557 0.690976 0.695829 0.714871
          0.713325 0.704505 0.695031 0.700227 0.702337 0.697912
          0.539003 0.673298 0.694811 0.694261 0.682302 0.690701
          0.692925 0.702388 0.693463 0.698115 0.681909 0.68844
          0.699243 0.714073 0.70557 0.699212 0.701566 0.704956
          0.695836 0.709838 0.696203 0.694614 0.696615 0.699301
          0.69554 0.686428 0.688327 0.695845 0.693461 0.693463
          0.67899 0.702055 0.697187 0.533361 0.682709 0.697705
          0.686598 0.684984 0.686096 0.671031 0.695269 0.693643
          0.708146 0.695556 0.697781 0.716134 0.685447 0.709462
          0.706025 0.688494 0.700865 0.694094 0.709404 0.712481
          0.707474 0.708287 0.722592 0.720358 0.709262 0.717666
          0.71686 0.709883 0.702549 0.708304 0.715043 0.719237
          0.532505 0.671804 0.700706 0.689396 0.687356 0.674549
          0.676713 0.703357 0.693718 0.69871 0.697515 0.691251
          0.695433 0.684355 0.694824 0.713668 0.705686 0.707279
          0.698146 0.71257 0.70887 0.705797 0.699365 0.70204
          0.690466 0.685199 0.688598 0.702361 0.691995 0.690069
          0.69663 0.691436 0.705392 0.520254 0.685191 0.687771
          0.689093 0.687381 0.688257 0.695598 0.682269 0.69235
          0.697924 0.709516 0.709671 0.688279 0.708964 0.695143
          0.69642 0.697084 0.696344 0.694962 0.70047 0.701657
          0.687259 0.7068 0.681183 0.68371 0.703784 0.692014
          0.691937 0.68882 0.681895 0.685253 0.695964 0.687599
          0.537292 0.707144 0.681041 0.698355 0.701153 0.698899
          0.693688 0.687215 0.705784 0.69187 0.702662 0.702521
          0.703845 0.71596 0.697167 0.711451 0.697169 0.69448
          0.715512 0.689648 0.696359 0.71215 0.698283 0.700015
          0.71237 0.724078 0.710483 0.702676 0.705372 0.704255
          0.726412 0.714519 0.719525 0.546568 0.70334 0.683956
          0.708875 0.699097 0.710948 0.706227 0.693491 0.713561
          0.690133 0.704583 0.709355 0.699336 0.708441 0.685497
          0.705625 0.708287 0.68732 0.704385 0.693543 0.715189
          0.690822 0.694151 0.707465 0.720271 0.709618 0.698833
          0.703834 0.719422 0.707091 0.715972 0.711873 0.710368
          0.526711 0.677061 0.697543 0.694024 0.696327 0.681737
          0.679408 0.69611 0.691007 0.706827 0.697663 0.694575
          0.703905 0.682715 0.71146 0.701404 0.71112 0.704428
          0.690445 0.694582 0.703521 0.708557 0.68861 0.69772
          0.700718 0.69556 0.714093 0.701415 0.699517 0.707012
          0.688406 0.710763 0.709091 0.548333 0.699429 0.679362
          0.685108 0.705377 0.695179 0.683661 0.714153 0.693875
          0.698968 0.690246 0.708347 0.692058 0.702907 0.699719
          0.701075 0.696806 0.71027 0.694915 0.698896 0.701398
          0.701221 0.701185 0.700759 0.708818 0.711776 0.706867
          0.705931 0.710741 0.708404 0.707271 0.704273 0.706685
          0.538587 0.686925 0.688654 0.684196 0.684093 0.68256
          0.688125 0.710216 0.682625 0.696484 0.703732 0.697983
          0.697474 0.699336 0.703067 0.702009 0.692427 0.704473
          0.697952 0.70816 0.692965 0.686132 0.681098 0.682376
          0.701282 0.676435 0.693333 0.691142 0.688527 0.69079
          0.682023 0.68811 0.692684 0.527572 0.696108 0.694136
          0.685351 0.71584 0.702191 0.708592 0.700921 0.7122
          0.706235 0.70027 0.705828 0.712458 0.704208 0.701632
          0.702232 0.697154 0.69661 0.69772 0.704746 0.675051
          0.696373 0.674826 0.684891 0.693538 0.702605 0.697343
          0.688122 0.696744 0.692018 0.695946 0.689591 0.696252
          0.551596 0.704438 0.703288 0.690034 0.715833 0.697312
          0.709849 0.701583 0.691223 0.705723 0.703797 0.703382
          0.689569 0.693305 0.712696 0.700899 0.703745 0.699962
          0.702576 0.700004 0.70719 0.689574 0.6816 0.689804
          0.691308 0.707556 0.687669 0.683962 0.691136 0.682063
          0.698491 0.711169 0.683668 0.556348 0.712832 0.692361
          0.693983 0.705044 0.686556 0.700123 0.707467 0.702299
          0.694651 0.701957 0.697332 0.700628 0.703845 0.696882
          0.697639 0.695169 0.694294 0.70705 0.701529 0.689355
          0.674857 0.68064 0.697562 0.681736 0.707503 0.685208
          0.700068 0.698637 0.693138 0.710401 0.677406 0.692898
          0.525213 0.667486 0.701061 0.691576 0.688824 0.680116
          0.679447 0.696606 0.689724 0.703558 0.696929 0.692736
          0.71781 0.700531 0.707852 0.702945 0.695152 0.691288
          0.695014 0.702683 0.700402 0.717651 0.718681 0.713631
          0.714926 0.702101 0.708232 0.724865 0.706206 0.707348
          0.714252 0.717648 0.713281 0.520769 0.676515 0.690355
          0.679532 0.67996 0.680577 0.69633 0.709804 0.696439
          0.714319 0.692614 0.700424 0.696191 0.707757 0.700114
          0.705162 0.693761 0.715036 0.692154 0.69844 0.686429
          0.701388 0.693049 0.691003 0.706678 0.690017 0.695993
          0.688531 0.684875 0.689894 0.697635 0.692436 0.683441
          0.534074 0.685807 0.693919 0.687024 0.700212 0.688259
          0.68213 0.699792 0.688397 0.697093 0.704142 0.700246
          0.694954 0.702121 0.696506 0.710057 0.700881 0.693653
          0.705201 0.695939 0.716547 0.72595 0.712722 0.715538
          0.716066 0.725562 0.716978 0.711662 0.706994 0.714427
          0.718043 0.710039 0.704911 0.53272 0.690589 0.707861
          0.697164 0.706634 0.69436 0.686749 0.70306 0.693428
          0.711305 0.687373 0.69899 0.694616 0.691234 0.6902
          0.689573 0.705863 0.713994 0.683968 0.705847 0.685436
          0.69988 0.701011 0.706791 0.700404 0.690829 0.693307
          0.704539 0.683912 0.696563 0.673015 0.697721 0.691423
          0.550007 0.699879 0.717196 0.694423 0.700671 0.688729
          0.708157 0.697081 0.699433 0.706929 0.691454 0.692754
          0.700587 0.700925 0.709274 0.709101 0.690117 0.714722
          0.700538 0.690025 0.687478 0.69484 0.700463 0.69764
          0.696936 0.698207 0.693033 0.699722 0.689189 0.702678
          0.706358 0.683683 0.708078 0.537094 0.68303 0.70512
          0.694752 0.702375 0.717917 0.684462 0.713922 0.695534
          0.708328 0.693665 0.696185 0.706844 0.694634 0.705659
          0.684538 0.701047 0.696231 0.692823 0.707778 0.707211
          0.686751 0.68934 0.692539 0.699453 0.702953 0.70431
          0.70201 0.698222 0.70094 0.686571 0.685356 0.705978
          0.552016 0.69689 0.692855 0.700425 0.686267 0.700257
          0.691718 0.693127 0.684984 0.678975 0.684684 0.690954
          0.709296 0.718719 0.688802 0.676092 0.713046 0.713187
          0.698705 0.688907 0.691867 0.696293 0.700485 0.693555
          0.711353 0.702616 0.682356 0.716366 0.722482 0.704352
          0.69478 0.692986 0.71043 0.5293 0.689141 0.675597
          0.692501 0.698495 0.692534 0.691623 0.682944 0.714426
          0.689033 0.688093 0.69416 0.703684 0.715985 0.699719
          0.70551 0.690761 0.701407 0.705767 0.703061 0.684267
          0.69379 0.690097 0.678877 0.698832 0.698695 0.696896
          0.685787 0.689876 0.692078 0.687984 0.688504 0.690039
          0.548795 0.71767 0.696785 0.704758 0.70508 0.69875
          0.698283 0.696946 0.694034 0.699325 0.703172 0.692947
          0.696721 0.710258 0.704262 0.689641 0.691858 0.706944
          0.695888 0.713517 0.683902 0.686022 0.679467 0.690498
          0.69366 0.698734 0.682858 0.697898 0.689456 0.686577
          0.695178 0.701237 0.694617 0.546862 0.683358 0.703087
          0.714726 0.678143 0.691312 0.700472 0.693156 0.695259
          0.706797 0.698386 0.708077 0.71269 0.692743 0.701288
          0.710567 0.705391 0.691087 0.698175 0.700794 0.687987
          0.704186 0.694033 0.698323 0.711488 0.685475 0.701226
          0.703065 0.702875 0.709469 0.690408 0.704632 0.696952
          0.548116 0.695786 0.713721 0.691072 0.688968 0.706428
          0.692958 0.691815 0.694272 0.705815 0.69316 0.706941
          0.692748 0.697546 0.705519 0.694434 0.708622 0.706448
          0.684166 0.691996 0.701706 0.716964 0.701536 0.723731
          0.722084 0.703992 0.719625 0.707274 0.728259 0.704311
          0.700722 0.715413 0.707931 0.523312 0.678651 0.69168
          0.696644 0.682055 0.682099 0.685561 0.689741 0.704493
          0.695832 0.691937 0.697629 0.723466 0.694679 0.696677
          0.69875 0.699013 0.693778 0.694139 0.699662 0.706422
          0.708051 0.713462 0.72136 0.712833 0.709907 0.716713
          0.714136 0.688641 0.702438 0.71277 0.715929 0.714333
          0.526813 0.681787 0.695396 0.679167 0.700853 0.689049
          0.688482 0.694276 0.696756 0.681253 0.686974 0.699688
          0.701361 0.700066 0.71097 0.699792 0.70376 0.706073
          0.713212 0.694465 0.710736 0.722254 0.71349 0.708125
          0.718086 0.70519 0.718107 0.705569 0.72603 0.719332
          0.704471 0.711609 0.723597 0.543228 0.703468 0.711396
          0.701589 0.702811 0.708808 0.708 0.702101 0.694632
          0.706109 0.703289 0.698452 0.708079 0.703419 0.699607
          0.691045 0.702509 0.713823 0.711835 0.69945 0.697242
          0.700252 0.697773 0.703551 0.715021 0.717248 0.711323
          0.712239 0.698544 0.710957 0.705152 0.720512 0.713037
          0.55285 0.673833 0.699973 0.687729 0.698103 0.680111
          0.704591 0.703716 0.713185 0.679216 0.687071 0.719692
          0.70809 0.695752 0.712253 0.707689 0.703418 0.71002
          0.697889 0.686293 0.699687 0.71409 0.715021 0.702508
          0.710905 0.704329 0.720489 0.719913 0.702817 0.701135
          0.693089 0.701419 0.690278 0.546504 0.685254 0.681426
          0.679303 0.697944 0.679965 0.691184 0.702678 0.696958
          0.713102 0.688387 0.706515 0.683178 0.706666 0.703615
          0.704294 0.681618 0.714186 0.701113 0.715163 0.714837
          0.707932 0.706168 0.698274 0.713417 0.71605 0.695145
          0.693672 0.703506 0.713412 0.730796 0.700986 0.708477
          0.544967 0.692434 0.691024 0.693488 0.701785 0.703007
          0.688555 0.705051 0.688712 0.700469 0.68917 0.699369
          0.687035 0.705265 0.695208 0.697611 0.699502 0.707133
          0.696455 0.700777 0.72474 0.717745 0.704538 0.699015
          0.712739 0.694023 0.704184 0.716961 0.706755 0.711367
          0.708976 0.709025 0.714135 0.534792 0.67097 0.685191
          0.700033 0.674313 0.7003 0.693554 0.689852 0.693637
          0.718264 0.69962 0.703625 0.702201 0.70794 0.689346
          0.698669 0.716484 0.697379 0.714325 0.694092 0.717731
          0.707473 0.702186 0.705764 0.716816 0.724349 0.710474
          0.712286 0.708995 0.703278 0.702458 0.703411 0.705899
          0.543728 0.716811 0.682352 0.705998 0.698752 0.686836
          0.707019 0.691424 0.674901 0.696797 0.699446 0.71548
          0.696517 0.717962 0.692502 0.718155 0.696636 0.689319
          0.688199 0.693635 0.702945 0.703744 0.719643 0.702998
          0.719301 0.716595 0.692407 0.699124 0.700302 0.701373
          0.712453 0.711596 0.719297 0.535805 0.67087 0.701598
          0.706702 0.688185 0.681 0.687703 0.690323 0.701909
          0.697162 0.69551 0.688689 0.702918 0.680659 0.708851
          0.697849 0.703583 0.697742 0.687423 0.702641 0.693514
          0.697052 0.703514 0.706162 0.699693 0.699292 0.711411
          0.705082 0.699023 0.7111 0.695888 0.695397 0.695395
          0.548651 0.677208 0.701327 0.695313 0.68752 0.707172
          0.689947 0.702085 0.683346 0.698608 0.695859 0.707527
          0.703032 0.700316 0.702401 0.689091 0.695592 0.707833
          0.694417 0.704015 0.699141 0.703526 0.698692 0.710448
          0.695333 0.684074 0.686917 0.696002 0.698444 0.691858
          0.696316 0.697504 0.693208 0.544711 0.710947 0.705724
          0.703817 0.696863 0.700298 0.705637 0.694842 0.693237
          0.693812 0.696692 0.715024 0.695278 0.703786 0.698551
          0.701519 0.702144 0.686229 0.712501 0.698091 0.688329
          0.708604 0.690034 0.688012 0.693198 0.715877 0.693202
          0.699328 0.687179 0.692037 0.690056 0.697247 0.702696
          0.528791 0.705569 0.689393 0.704427 0.712804 0.69172
          0.697902 0.711795 0.708793 0.693666 0.690723 0.707375
          0.700136 0.709722 0.683019 0.707575 0.711775 0.697575
          0.704065 0.706539 0.69382 0.690588 0.711856 0.682542