<?xml version="1.0"?>
<VTKFile type="PolyData" version="0.1" byte_order="LittleEndian" header_type="UInt32" compressor="vtkZLibDataCompressor">
  <PolyData>
    <Piece NumberOfPoints="7920" NumberOfVerts="0" NumberOfLines="0" NumberOfStrips="0" NumberOfPolys="0">
      <PointData Scalars="Calcium Concentration">
        <DataArray type="Float32" Name="Calcium Concentration" format="ascii" RangeMin="0.46332600712776184" RangeMax="0.7372959852218628">
          0.483468 0.700566 0.703293 0.690398 0.701129 0.692137
          0.689138 0.710192 0.695635 0.695172 0.692697 0.708983
          0.70632 0.712742 0.694525 0.700367 0.692518 0.702719
          0.716894 0.695679 0.697498 0.674422 0.691084 0.693324
          0.682488 0.697483 0.690307 0.694181 0.693561 0.686283
          0.707929 0.688692 0.68751 0.492767 0.693049 0.699566
          0.69386 0.703478 0.697737 0.697358 0.698476 0.721198
          0.697188 0.69823 0.709829 0.693153 0.708608 0.703182
          0.694006 0.695355 0.702346 0.700074 0.698438 0.693272
          0.693358 0.691046 0.676917 0.672203 0.705111 0.702128
          0.684574 0.680498 0.697054 0.702119 0.679555 0.691294
          0.487442 0.683837 0.688438 0.675798 0.684463 0.68012
          0.696017 0.695393 0.694805 0.702171 0.688212 0.701873
          0.712869 0.70423 0.709682 0.705149 0.710536 0.717189
          0.721508 0.700566 0.720389 0.713694 0.714009 0.712283
          0.709979 0.71186 0.705 0.704344 0.714047 0.704783
          0.706428 0.708018 0.709819 0.485181 0.694444 0.714615
          0.688202 0.696717 0.694355 0.709418 0.687119 0.711562
          0.70381 0.693878 0.698405 0.69059 0.704048 0.699876
          0.698469 0.696941 0.695985 0.70597 0.703568 0.70672
          0.694186 0.696746 0.695705 0.687998 0.716875 0.704662
          0.697473 0.709712 0.699788 0.698113 0.699277 0.699694
          0.487564 0.684571 0.687497 0.696593 0.685261 0.688521
          0.689623 0.68119 0.70003 0.694773 0.703748 0.693806
          0.70213 0.705702 0.688393 0.705355 0.705876 0.703776
          0.710582 0.694479 0.693106 0.691056 0.693627 0.681861
          0.686694 0.689138 0.688918 0.690783 0.686762 0.690608
          0.683562 0.698711 0.702488 0.507586 0.702203 0.691511
          0.689009 0.685322 0.712632 0.697021 0.698565 0.703316
          0.696429 0.686917 0.701249 0.710054 0.706991 0.700704
          0.701227 0.700187 0.689777 0.716722 0.70239 0.699037
          0.702292 0.70004 0.689221 0.704821 0.724806 0.714948
          0.7023 0.702742 0.710518 0.715856 0.707656 0.705583
          0.491113 0.682573 0.691645 0.684865 0.678274 0.690524
          0.681174 0.690906 0.710408 0.710075 0.68739 0.702689
          0.696437 0.71172 0.693601 0.702947 0.709547 0.701139
          0.708923 0.69589 0.710241 0.70215 0.694924 0.694432
          0.69659 0.718474 0.713681 0.714924 0.715428 0.700936
          0.722419 0.713854 0.716392 0.477591 0.686382 0.678623
          0.691059 0.68467 0.697759 0.681173 0.664078 0.700023
          0.693757 0.717083 0.71381 0.704054 0.708277 0.695252
          0.697193 0.698003 0.712655 0.709146 0.690128 0.688499
          0.686753 0.692455 0.68037 0.696178 0.698084 0.698728
          0.687243 0.69071 0.678388 0.708673 0.680925 0.679344
          0.473219 0.684503 0.687178 0.691347 0.67706 0.687395
          0.68298 0.701484 0.707831 0.697299 0.707325 0.710022
          0.706354 0.719258 0.702497 0.702844 0.709838 0.691592
          0.713536 0.685562 0.707329 0.698166 0.703694 0.702749
          0.71054 0.720678 0.705302 0.70639 0.702665 0.700156
          0.714282 0.711291 0.712056 0.496837 0.700616 0.700499
          0.697102 0.69322 0.697611 0.707598 0.697174 0.712122
          0.691787 0.716844 0.689035 0.693798 0.712102 0.695127
          0.694322 0.69678 0.708821 0.709513 0.707331 0.703563
          0.69776 0.689877 0.700025 0.716667 0.717985 0.70474
          0.711653 0.707467 0.700284 0.705029 0.689343 0.711233
          0.495036 0.703352 0.702598 0.697432 0.686971 0.711319
          0.697628 0.694476 0.699846 0.700002 0.706419 0.700675
          0.707223 0.699451 0.6916 0.704139 0.695955 0.708066
          0.700799 0.697406 0.700046 0.707656 0.707372 0.703518
          0.696028 0.71554 0.719721 0.700505 0.702456 0.704462
          0.721596 0.70592 0.719401 0.478702 0.6848 0.692854
          0.694911 0.669656 0.691205 0.692381 0.701008 0.697264
          0.693777 0.692684 0.702937 0.709124 0.705254 0.692672
          0.697884 0.704353 0.701263 0.70904 0.710882 0.692553
          0.694741 0.697342 0.679218 0.672288 0.693514 0.690963
          0.69296 0.683454 0.684551 0.689838 0.69191 0.69909
          0.489338 0.697764 0.686138 0.705781 0.688596 0.702729
          0.705108 0.7001 0.697292 0.689863 0.69933 0.699908
          0.704338 0.705836 0.708982 0.696846 0.697466 0.708946
          0.690847 0.703461 0.691826 0.689482 0.699715 0.68321
          0.695471 0.693468 0.683397 0.686371 0.708698 0.690575
          0.701346 0.693104 0.694939 0.497527 0.683603 0.683532
          0.694442 0.70686 0.691898 0.698912 0.694257 0.685706
          0.690927 0.704671 0.708882 0.701848 0.70133 0.70929
          0.698212 0.68657 0.703301 0.716287 0.691639 0.701749
          0.697403 0.677669 0.683505 0.687923 0.693576 0.683832
          0.691755 0.704289 0.691137 0.688267 0.690953 0.690664
          0.480732 0.68162 0.691725 0.691644 0.694507 0.682562
          0.689197 0.6942 0.685903 0.693393 0.691988 0.69169
          0.69676 0.712717 0.702973 0.683498 0.70783 0.700232
          0.691368 0.692735 0.714851 0.714558 0.712173 0.703172
          0.699687 0.708423 0.715067 0.709061 0.711479 0.718675
          0.707963 0.720023 0.718032 0.473064 0.690293 0.687288
          0.685002 0.704355 0.712021 0.697068 0.69454 0.688689
          0.69747 0.690496 0.69957 0.698714 0.708695 0.693491
          0.701143 0.688904 0.706695 0.694488 0.702924 0.691236
          0.678181 0.695891 0.684246 0.692166 0.6905 0.692288
          0.692011 0.692279 0.686286 0.69086 0.684522 0.689837
          0.493295 0.677359 0.689165 0.687422 0.689946 0.691726
          0.688582 0.695807 0.690098 0.690884 0.696529 0.714835
          0.701048 0.713372 0.713299 0.701038 0.695841 0.702576
          0.698936 0.6886 0.685504 0.692535 0.700267 0.698496
          0.699806 0.682102 0.699741 0.691138 0.694927 0.706403
          0.704551 0.692681 0.688278 0.471301 0.692738 0.675859
          0.672456 0.678393 0.687277 0.685239 0.711579 0.706239
          0.688999 0.703026 0.703601 0.698478 0.716613 0.699472
          0.712005 0.691779 0.701044 0.708386 0.692048 0.697233
          0.71019 0.709631 0.70372 0.71081 0.720878 0.69371
          0.703769 0.707457 0.702395 0.709854 0.705415 0.708113
          0.476132 0.686574 0.689415 0.68167 0.683918 0.679704
          0.677492 0.693416 0.685017 0.697641 0.695006 0.706483
          0.712956 0.694905 0.696563 0.696834 0.690131 0.706406
          0.703797 0.69715 0.692905 0.689604 0.680164 0.688755
          0.687209 0.702389 0.688765 0.68567 0.697697 0.688526
          0.703252 0.692947 0.706531 0.489757 0.695741 0.698753
          0.704672 0.706993 0.682725 0.712076 0.704296 0.698025
          0.697802 0.710093 0.70693 0.70289 0.705377 0.695065
          0.695114 0.687443 0.681585 0.708981 0.696528 0.690685
          0.692668 0.692875 0.683664 0.693306 0.686467 0.697114
          0.690285 0.690387 0.683588 0.693428 0.684389 0.678956
          0.490063 0.715904 0.699945 0.697714 0.705948 0.693946
          0.698652 0.706511 0.693583 0.697126 0.716728 0.701281
          0.698188 0.717679 0.686039 0.701083 0.702158 0.691596
          0.708917 0.693897 0.691809 0.692593 0.673833 0.69658
          0.697766 0.705445 0.681926 0.68792 0.693131 0.697638
          0.69313 0.681611 0.702543 0.497248 0.680605 0.697318
          0.687158 0.694748 0.70201 0.71479 0.688608 0.697703
          0.70873 0.697871 0.696081 0.706449 0.697565 0.712042
          0.697936 0.693737 0.697931 0.700067 0.700102 0.706541
          0.698206 0.719114 0.702722 0.695657 0.723274 0.70808
          0.69945 0.707769 0.711681 0.717833 0.70559 0.705118
          0.482378 0.711112 0.686058 0.720109 0.698364 0.698063
          0.708093 0.697313 0.69148 0.69145 0.707376 0.700035
          0.69398 0.720148 0.684306 0.712486 0.687625 0.704717
          0.709984 0.692729 0.713421 0.712338 0.710669 0.717334
          0.707835 0.71309 0.697063 0.705021 0.703563 0.710285
          0.723786 0.705218 0.718238 0.500043 0.713598 0.693489
          0.702972 0.702649 0.676412 0.699742 0.709936 0.696931
          0.694531 0.701997 0.68313 0.692656 0.715763 0.696524
          0.697451 0.698956 0.715517 0.685226 0.691371 0.706165
          0.702747 0.714103 0.708917 0.720304 0.723047 0.714907
          0.718938 0.719482 0.703494 0.711284 0.697927 0.701311
          0.479426 0.692864 0.701439 0.710852 0.704417 0.679058
          0.706863 0.704268 0.699286 0.714346 0.704239 0.700022
          0.695441 0.699523 0.705972 0.689805 0.700693 0.705752
          0.714738 0.702623 0.691123 0.69093 0.684233 0.70243
          0.6915 0.697376 0.683198 0.692482 0.697565 0.705793
          0.690335 0.682667 0.693074 0.489526 0.689562 0.699918
          0.691368 0.694154 0.694737 0.705988 0.699518 0.696571
          0.702324 0.697321 0.69058 0.705201 0.688339 0.704858
          0.697773 0.689708 0.698507 0.700126 0.698151 0.700825
          0.682723 0.685406 0.692615 0.688757 0.690242 0.69721
          0.69283 0.704032 0.709199 0.686893 0.695281 0.698402
          0.492812 0.704124 0.693393 0.692408 0.699405 0.709757
          0.697089 0.698257 0.699128 0.701836 0.696225 0.701269
          0.703882 0.724014 0.684496 0.701198 0.701558 0.697515
          0.703174 0.697297 0.692639 0.688086 0.678294 0.688952
          0.701417 0.691257 0.691518 0.687789 0.679777 0.684636
          0.693587 0.680504 0.688248 0.487016 0.699815 0.682639
          0.690251 0.698105 0.702972 0.692042 0.696434 0.701335
          0.695891 0.698731 0.692436 0.702412 0.689952 0.701407
          0.70407 0.697273 0.68991 0.715522 0.695693 0.694984
          0.690051 0.683983 0.684636 0.690496 0.688422 0.683274
          0.69057 0.68543 0.697466 0.689936 0.695713 0.681342
          0.488399 0.702799 0.69466 0.713061 0.70131 0.698888
          0.703025 0.702206 0.678304 0.713112 0.687769 0.683996
          0.715565 0.693286 0.712635 0.697244 0.697751 0.712923
          0.708781 0.705173 0.695443 0.687221 0.676418 0.697423
          0.680667 0.690157 0.68364 0.690099 0.702993 0.684148
          0.681707 0.701259 0.693404 0.492096 0.702866 0.69065
          0.696633 0.70589 0.697611 0.711807 0.687901 0.711604
          0.705176 0.706035 0.694648 0.697598 0.725964 0.687152
          0.702871 0.695015 0.692176 0.711106 0.688559 0.683591
          0.699802 0.683966 0.698276 0.691426 0.707433 0.696499
          0.700758 0.706532 0.705983 0.701894 0.683327 0.677997
          0.489001 0.689649 0.699205 0.690872 0.684177 0.686914
          0.693591 0.701429 0.676547 0.702574 0.694032 0.692486
          0.695031 0.697056 0.698 0.700502 0.702842 0.704
          0.6961 0.703078 0.697681 0.713075 0.711723 0.711241
          0.711873 0.704477 0.716338 0.698579 0.701154 0.713228
          0.694272 0.716363 0.701713 0.477184 0.678263 0.686275
          0.686598 0.693385 0.696531 0.703609 0.69848 0.684111
          0.688814 0.694525 0.707507 0.701767 0.706379 0.70663
          0.697583 0.689899 0.697265 0.69949 0.708783 0.712919
          0.726945 0.697575 0.695531 0.709401 0.717571 0.701361
          0.705768 0.703351 0.715487 0.722628 0.710775 0.713456
          0.494747 0.707692 0.682739 0.695579 0.71135 0.700366
          0.717035 0.678888 0.697834 0.706312 0.71774 0.684623
          0.705364 0.716133 0.697587 0.692672 0.697112 0.689153
          0.711841 0.690624 0.703455 0.706983 0.711644 0.700678
          0.696143 0.716743 0.709243 0.712863 0.700598 0.711268
          0.717981 0.719634 0.716638 0.469949 0.678451 0.680451
          0.698037 0.677383 0.691584 0.697342 0.696887 0.693741
          0.706133 0.700737 0.699014 0.699512 0.712166 0.691534
          0.689363 0.693363 0.701005 0.708314 0.697938 0.69296
          0.699374 0.692436 0.702905 0.700578 0.691903 0.690872
          0.697774 0.68631 0.686067 0.694144 0.693005 0.6936
          0.500509 0.691593 0.702463 0.677732 0.672525 0.698158
          0.692076 0.682536 0.707162 0.701741 0.695644 0.702473
          0.706799 0.696306 0.70446 0.69921 0.705157 0.703318
          0.699049 0.704706 0.700905 0.696833 0.687574 0.703941
          0.682947 0.686171 0.702231 0.69491 0.694772 0.692227
          0.688852 0.698278 0.691715 0.477706 0.675475 0.699584
          0.696248 0.685048 0.688183 0.692237 0.702481 0.699167
          0.704384 0.684355 0.695539 0.695294 0.687025 0.692279
          0.698967 0.700243 0.702553 0.705498 0.691722 0.698853
          0.701342 0.696478 0.712274 0.704271 0.69652 0.698327
          0.700056 0.696909 0.703441 0.697428 0.677022 0.697734
          0.477316 0.687698 0.696277 0.703288 0.697243 0.699141
          0.70583 0.699806 0.693409 0.698394 0.691445 0.712245
          0.69808 0.690946 0.701158 0.699284 0.702609 0.698196
          0.69762 0.711962 0.694752 0.695312 0.706241 0.678348
          0.702215 0.698038 0.685416 0.691972 0.698611 0.695801
          0.68616 0.69083 0.683547 0.470384 0.661904 0.696199
          0.684471 0.688154 0.693948 0.685107 0.689937 0.696981
          0.699129 0.693575 0.705221 0.702858 0.689272 0.698266
          0.713891 0.705551 0.694073 0.698733 0.690509 0.701632
          0.698847 0.719784 0.705634 0.700395 0.705327 0.718227
          0.7122 0.712575 0.709304 0.708366 0.709975 0.718328
          0.497053 0.704644 0.698825 0.708157 0.692772 0.699077
          0.703958 0.695759 0.702485 0.69829 0.68592 0.700843
          0.707852 0.69744 0.689726 0.702523 0.69292 0.700645
          0.702596 0.703442 0.70686 0.695333 0.694244 0.704731
          0.704075 0.688129 0.706206 0.693603 0.691922 0.702761
          0.692276 0.692055 0.679302 0.481956 0.700242 0.695037
          0.717402 0.696054 0.701687 0.7016 0.697551 0.713711
          0.702726 0.707141 0.680987 0.707947 0.702158 0.711953
          0.700466 0.685435 0.694655 0.705301 0.689853 0.697804
          0.709842 0.694597 0.693177 0.694804 0.704374 0.678215
          0.679699 0.691878 0.695249 0.713359 0.69815 0.684373
          0.483411 0.688083 0.700119 0.694958 0.698944 0.688437
          0.693511 0.694548 0.706663 0.704224 0.687582 0.699895
          0.716264 0.692602 0.692153 0.701064 0.699478 0.696703
          0.69246 0.715944 0.696608 0.697026 0.69979 0.708241
          0.6827 0.680576 0.699239 0.702306 0.699057 0.695856
          0.690378 0.692225 0.692549 0.49913 0.721515 0.705417
          0.690525 0.686703 0.704921 0.704439 0.698086 0.691599
          0.705081 0.708266 0.682343 0.701676 0.711119 0.680899
          0.696533 0.68843 0.687729 0.698145 0.703437 0.709506
          0.705988 0.705619 0.705509 0.698366 0.727556 0.710147
          0.701933 0.711613 0.715736 0.703328 0.699498 0.69973
          0.478499 0.698693 0.697537 0.697755 0.705011 0.688464
          0.701697 0.700903 0.700858 0.682767 0.699499 0.700943
          0.689959 0.718678 0.70137 0.684651 0.703113 0.699686
          0.714028 0.690484 0.69358 0.692758 0.692358 0.695933
          0.685467 0.710683 0.692564 0.691692 0.685807 0.702285
          0.698187 0.696254 0.689349 0.487016 0.702958 0.718807
          0.704719 0.687756 0.687474 0.6955 0.710411 0.700791
          0.693115 0.703392 0.693741 0.698637 0.702953 0.696754
          0.695732 0.697056 0.70425 0.711156 0.703774 0.708419
          0.697825 0.704548 0.701958 0.70467 0.726689 0.71043
          0.718785 0.70461 0.711278 0.707157 0.702569 0.720641
          0.478327 0.663345 0.696738 0.703705 0.694964 0.69803
          0.683301 0.701909 0.706152 0.702901 0.6765 0.69039
          0.67627 0.68555 0.696346 0.692193 0.698681 0.703589
          0.702421 0.688301 0.721176 0.697444 0.714884 0.731919
          0.705426 0.708837 0.707534 0.719681 0.72155 0.713409
          0.71049 0.719559 0.722889 0.478815 0.678618 0.679532
          0.681689 0.686164 0.691019 0.696715 0.693722 0.68909
          0.704487 0.69643 0.694365 0.712384 0.688467 0.702248
          0.701141 0.704858 0.705464 0.697974 0.689269 0.708723
          0.706045 0.712555 0.695739 0.702747 0.714032 0.712209
          0.704257 0.70519 0.716191 0.701412 0.714867 0.714857
          0.470239 0.687104 0.677903 0.688523 0.692613 0.689443
          0.695877 0.688972 0.697525 0.718415 0.69396 0.693468
          0.70322 0.713159 0.701935 0.708458 0.685395 0.705197
          0.717571 0.698524 0.720635 0.717325 0.723584 0.70785
          0.686282 0.704643 0.704294 0.704613 0.714544 0.709256
          0.70221 0.711627 0.704763 0.506202 0.713587 0.705314
          0.71403 0.706536 0.721394 0.693528 0.69451 0.712487
          0.692716 0.707266 0.690447 0.706513 0.716146 0.691265
          0.702017 0.676496 0.686755 0.689703 0.69517 0.703315
          0.702471 0.706523 0.703498 0.69433 0.712439 0.704644
          0.708061 0.705886 0.711198 0.711847 0.706479 0.699309
          0.470111 0.67696 0.692751 0.688248 0.690052 0.685065
          0.697338 0.682713 0.682338 0.685308 0.694079 0.68381
          0.706991 0.706982 0.717933 0.7028 0.693591 0.695154
          0.705786 0.71098 0.683083 0.697925 0.686873 0.695625
          0.701279 0.70426 0.683171 0.683932 0.688665 0.697976
          0.697543 0.693405 0.694331 0.496567 0.690869 0.700547
          0.697855 0.693139 0.708262 0.697265 0.694447 0.695564
          0.713537 0.704093 0.691189 0.711893 0.68048 0.705778
          0.691708 0.701472 0.703166 0.70899 0.710975 0.696626
          0.69666 0.694464 0.690311 0.700277 0.695658 0.704883
          0.7087 0.700101 0.687438 0.706308 0.701834 0.698446
          0.492858 0.68284 0.699577 0.690972 0.678486 0.68921
          0.684919 0.710797 0.70208 0.69248 0.681792 0.685882
          0.700033 0.705848 0.705792 0.706642 0.700952 0.698828
          0.698012 0.715139 0.694056 0.690252 0.695081 0.691345
          0.689813 0.692262 0.683417 0.688592 0.690034 0.695426
          0.683195 0.69222 0.701082 0.485069 0.673088 0.695297
          0.691314 0.683622 0.684323 0.67208 0.69491 0.704271
          0.710265 0.692938 0.695826 0.715657 0.689035 0.703804
          0.707387 0.694987 0.684486 0.694538 0.708397 0.712462
          0.711557 0.705293 0.719661 0.721388 0.713318 0.721623
          0.711419 0.707508 0.700392 0.700673 0.715246 0.724227
          0.48078 0.676215 0.691594 0.685066 0.687764 0.683986
          0.680029 0.699094 0.699458 0.699388 0.696262 0.693875
          0.702147 0.684637 0.692126 0.708271 0.698673 0.696848
          0.696519 0.701312 0.699284 0.711296 0.697571 0.700712
          0.695625 0.686356 0.693405 0.699647 0.690552 0.690263
          0.691765 0.694656 0.713344 0.480188 0.685917 0.69406
          0.677746 0.68467 0.687278 0.707226 0.678234 0.681256
          0.698401 0.712004 0.693226 0.695091 0.704312 0.69085
          0.691252 0.695581 0.69635 0.704477 0.708366 0.710287
          0.693366 0.698135 0.690508 0.679899 0.697642 0.699116
          0.692647 0.689379 0.690576 0.686593 0.688062 0.698782
          0.481625 0.706914 0.682783 0.706265 0.700593 0.704341
          0.694069 0.690915 0.698721 0.694735 0.702947 0.709624
          0.706236 0.719663 0.691445 0.714209 0.696313 0.698732
          0.720881 0.691569 0.703182 0.710484 0.691337 0.704219
          0.717446 0.71641 0.715159 0.710064 0.705822 0.709513
          0.731385 0.708753 0.712811 0.493635 0.699693 0.682584
          0.712321 0.708511 0.713422 0.711804 0.693405 0.705346
          0.686332 0.707128 0.708634 0.702598 0.709752 0.692456
          0.696922 0.709874 0.691383 0.709887 0.694634 0.714743
          0.698282 0.691093 0.699105 0.718702 0.708604 0.694136
          0.708564 0.712793 0.699756 0.722171 0.714674 0.710314
          0.479062 0.679842 0.693503 0.699059 0.684813 0.677303
          0.688388 0.693598 0.693955 0.706292 0.688701 0.690959
          0.706482 0.680319 0.70369 0.697937 0.698776 0.697563
          0.694083 0.694246 0.711138 0.712676 0.685619 0.700487
          0.693092 0.690237 0.706219 0.705996 0.70239 0.707961
          0.697034 0.70882 0.70428 0.493786 0.693054 0.68875
          0.691739 0.703917 0.701942 0.684848 0.719317 0.68876
          0.692521 0.69129 0.710176 0.695166 0.700162 0.698387
          0.69675 0.692896 0.714084 0.703918 0.704129 0.708076
          0.705388 0.705379 0.69936 0.710905 0.709062 0.705182
          0.702255 0.701281 0.702336 0.699135 0.704794 0.711397
          0.486471 0.689216 0.689181 0.678101 0.684839 0.678572
          0.692148 0.707397 0.684969 0.692594 0.70887 0.689968
          0.706736 0.702935 0.706597 0.697655 0.689216 0.713418
          0.695319 0.714335 0.689585 0.687655 0.681004 0.685055
          0.691962 0.672248 0.694077 0.689758 0.688755 0.689167
          0.691021 0.695342 0.69173 0.480155 0.6976 0.695674
          0.688878 0.712418 0.699689 0.708779 0.691176 0.702856
          0.704773 0.709277 0.700943 0.698488 0.698858 0.702905
          0.701756 0.701889 0.697659 0.697365 0.71127 0.68664
          0.690381 0.684055 0.688536 0.694345 0.699454 0.695914
          0.687983 0.688169 0.688511 0.6876 0.693728 0.69653
          0.504607 0.70289 0.700224 0.69067 0.712995 0.701795
          0.705309 0.701361 0.691764 0.701701 0.699635 0.708073
          0.6925 0.701798 0.709165 0.702925 0.699075 0.702027
          0.708991 0.702958 0.705434 0.687797 0.681508 0.688154
          0.696791 0.706012 0.686935 0.687474 0.682844 0.684439
          0.69904 0.706749 0.689016 0.502926 0.706623 0.691315
          0.698078 0.704477 0.693154 0.703832 0.701082 0.704448
          0.694642 0.699089 0.702823 0.697047 0.706447 0.695454
          0.707187 0.697511 0.686746 0.705742 0.697399 0.69684
          0.669874 0.679576 0.698557 0.686425 0.712876 0.676614
          0.700726 0.694271 0.686738 0.706086 0.677067 0.696245
          0.473895 0.667801 0.706142 0.696711 0.686206 0.68221
          0.683299 0.697281 0.693497 0.699158 0.697376 0.698188
          0.720443 0.689939 0.704274 0.698512 0.698253 0.681408
          0.690585 0.69956 0.692919 0.706836 0.721472 0.713513
          0.714507 0.704733 0.719124 0.724182 0.709229 0.710863
          0.706659 0.715373 0.711726 0.473243 0.682486 0.695581
          0.693452 0.668383 0.684182 0.686692 0.707713 0.698747
          0.705972 0.682411 0.701312 0.695758 0.703629 0.69675
          0.694135 0.693169 0.709159 0.694661 0.703775 0.697502
          0.696349 0.696992 0.696266 0.707597 0.690055 0.695104
          0.692716 0.685344 0.69356 0.691849 0.695828 0.683508
          0.485256 0.687209 0.685836 0.690431 0.699782 0.686333
          0.687518 0.701112 0.685027 0.699965 0.706107 0.70382
          0.697102 0.712687 0.693825 0.70483 0.701369 0.699348
          0.719131 0.692464 0.712222 0.723624 0.71515 0.70645
          0.724144 0.734441 0.707412 0.707543 0.710877 0.714947
          0.720867 0.717032 0.703285 0.482367 0.687417 0.702265
          0.692834 0.711827 0.703455 0.684109 0.711674 0.697131
          0.707373 0.693485 0.70007 0.686881 0.693639 0.697371
          0.692209 0.700909 0.714814 0.688263 0.706322 0.693653
          0.693364 0.700111 0.706163 0.696724 0.687514 0.696734
          0.710301 0.685492 0.69792 0.677539 0.704607 0.687725
          0.505247 0.694678 0.712032 0.703265 0.700294 0.689058
          0.711796 0.692796 0.700856 0.714458 0.699178 0.696049
          0.704338 0.689453 0.702328 0.706563 0.686403 0.713004
          0.705794 0.692902 0.694111 0.690052 0.697461 0.702067
          0.701642 0.689865 0.696733 0.694578 0.678257 0.706975
          0.70781 0.68956 0.706959 0.494165 0.683427 0.69864
          0.695555 0.700103 0.713083 0.687466 0.716369 0.692335
          0.711764 0.694051 0.707333 0.712347 0.684408 0.706637
          0.687067 0.709692 0.69704 0.697113 0.711179 0.718027
          0.689079 0.689336 0.700085 0.697749 0.697965 0.706733
          0.699443 0.691276 0.703399 0.682624 0.693453 0.706243
          0.493257 0.694541 0.69223 0.701237 0.694232 0.705546
          0.690559 0.692074 0.685164 0.680212 0.688445 0.696924
          0.712575 0.705071 0.689081 0.679811 0.711301 0.709196
          0.695062 0.686648 0.699005 0.695925 0.704988 0.706861
          0.704843 0.695174 0.682404 0.701681 0.714374 0.71027
          0.698453 0.69696 0.715148 0.485105 0.69373 0.668729
          0.687996 0.695849 0.681393 0.692335 0.681354 0.710907
          0.693165 0.699247 0.695239 0.699729 0.724212 0.685593
          0.7134 0.69507 0.705072 0.708597 0.698536 0.689629
          0.698775 0.68734 0.682863 0.693521 0.701837 0.691516
          0.679844 0.683568 0.699755 0.689357 0.689633 0.692549
          0.498164 0.718539 0.699635 0.718482 0.707903 0.702322
          0.696983 0.701027 0.706385 0.694607 0.705394 0.689278
          0.705513 0.712573 0.706155 0.687464 0.691864 0.708059
          0.707826 0.718356 0.686838 0.682267 0.683858 0.696177
          0.699901 0.688294 0.680906 0.696396 0.689977 0.679463
          0.695317 0.701108 0.685498 0.498256 0.679335 0.71263
          0.711429 0.677845 0.687142 0.69521 0.69537 0.690451
          0.696125 0.695979 0.711453 0.708883 0.698479 0.701112
          0.71527 0.700881 0.683089 0.703401 0.703477 0.699248
          0.702076 0.699324 0.697119 0.711732 0.680341 0.7002
          0.699851 0.702439 0.702861 0.698342 0.706813 0.707954
          0.490367 0.693294 0.712313 0.697035 0.688843 0.702951
          0.70179 0.692911 0.696894 0.702117 0.690364 0.707477
          0.694229 0.695242 0.703681 0.685826 0.712886 0.713872
          0.698044 0.688335 0.704519 0.718707 0.698749 0.720739
          0.714321 0.700973 0.715045 0.708174 0.723599 0.716432
          0.696413 0.716991 0.713447 0.474193 0.674068 0.684179
          0.703416 0.688706 0.686358 0.691076 0.690059 0.702329
          0.698014 0.694471 0.700308 0.720211 0.691249 0.702772
          0.696981 0.706489 0.692948 0.684026 0.705706 0.707296
          0.709257 0.702643 0.72429 0.713853 0.704557 0.709899
          0.71012 0.693553 0.702009 0.711041 0.716757 0.717039
          0.476651 0.675824 0.692785 0.680473 0.700486 0.693077
          0.695185 0.696441 0.696419 0.678354 0.684021 0.700849
          0.705136 0.702534 0.718793 0.698323 0.699058 0.706568
          0.711513 0.696357 0.707986 0.72367 0.712026 0.709331
          0.715115 0.698347 0.708858 0.698957 0.725648 0.722751
          0.708955 0.714472 0.716175 0.489463 0.693969 0.695575
          0.698914 0.715872 0.698523 0.706986 0.696838 0.693074
          0.709398 0.69901 0.699741 0.711186 0.698507 0.707335
          0.692014 0.694945 0.716346 0.701133 0.694279 0.697539
          0.698546 0.702581 0.701461 0.711979 0.708613 0.702242
          0.717282 0.70605 0.709028 0.702965 0.713908 0.708846
          0.495052 0.676026 0.696465 0.693312 0.704352 0.683877
          0.708925 0.703476 0.706817 0.689106 0.68693 0.715494
          0.703055 0.702351 0.710397 0.700276 0.694853 0.709489
          0.701136 0.692161 0.712332 0.719285 0.709564 0.699935
          0.703238 0.704679 0.709868 0.711399 0.709682 0.705563
          0.689587 0.704778 0.706226 0.491037 0.679781 0.676455
          0.678834 0.702584 0.677369 0.69713 0.706634 0.694439
          0.709618 0.700054 0.702771 0.687719 0.712187 0.701321
          0.712293 0.685404 0.716488 0.697775 0.699772 0.718041
          0.71864 0.70972 0.697046 0.718667 0.703531 0.685446
          0.697394 0.708325 0.710582 0.718418 0.695159 0.710402
          0.502868 0.689093 0.694606 0.700181 0.705408 0.700085
          0.686361 0.713866 0.697964 0.702143 0.692132 0.706869
          0.6857 0.715237 0.697297 0.700401 0.696145 0.703327
          0.701195 0.702006 0.71884 0.706659 0.712816 0.700337
          0.722933 0.69809 0.720421 0.716065 0.709398 0.711856
          0.687174 0.713273 0.712134 0.47777 0.669738 0.675021
          0.695012 0.677639 0.702045 0.690561 0.680389 0.694935
          0.705919 0.696362 0.706135 0.698739 0.707796 0.699641
          0.69286 0.708967 0.697747 0.708021 0.700116 0.719966
          0.716384 0.709514 0.707521 0.712625 0.707658 0.712681
          0.716294 0.705997 0.707867 0.70313 0.70354 0.706224
          0.478688 0.718534 0.689105 0.706806 0.699306 0.693145
          0.70364 0.69025 0.668993 0.706331 0.693606 0.713576
          0.703986 0.708621 0.690824 0.720906 0.692395 0.69631
          0.697757 0.699182 0.693234 0.700519 0.715291 0.700938
          0.717982 0.718427 0.688707 0.702933 0.699512 0.697932
          0.713359 0.72359 0.721455 0.488767 0.67624 0.714144
          0.69412 0.686455 0.68821 0.688241 0.693315 0.71051
          0.698127 0.69121 0.695574 0.696086 0.682632 0.702981
          0.703878 0.701505 0.693735 0.694343 0.706835 0.691074
          0.694393 0.710763 0.695608 0.703523 0.68864 0.719928
          0.6988 0.700259 0.720018 0.693475 0.699802 0.702987
          0.498649 0.680703 0.707811 0.695095 0.697266 0.706
          0.68868 0.705934 0.683968 0.69103 0.695121 0.703946
          0.695539 0.703795 0.707244 0.691701 0.695339 0.694347
          0.69471 0.712893 0.700043 0.705341 0.696961 0.714504
          0.697187 0.686962 0.692604 0.699752 0.69426 0.695288
          0.689762 0.697732 0.688986 0.492735 0.718508 0.708756
          0.69268 0.698971 0.700728 0.701493 0.69242 0.693183
          0.691105 0.701481 0.70491 0.70447 0.698602 0.706343
          0.691036 0.697722 0.68545 0.709365 0.703235 0.689228
          0.704961 0.694373 0.682985 0.689687 0.709507 0.694699
          0.69818 0.691139 0.697669 0.692913 0.699964 0.697264
          0.479428 0.713497 0.689051 0.706998 0.701673 0.68596
          0.699195 0.711541 0.702818 0.690751 0.703286 0.709408
          0.71306 0.711021 0.690342 0.704089 0.711155 0.693816
          0.71315 0.697772 0.703913 0.689189 0.710241 0.684852