<?xml version="1.0"?>
<VTKFile type="PolyData" version="0.1" byte_order="LittleEndian" header_type="UInt32" compressor="vtkZLibDataCompressor">
  <PolyData>
    <Piece NumberOfPoints="7920" NumberOfVerts="0" NumberOfLines="0" NumberOfStrips="0" NumberOfPolys="0">
      <PointData Scalars="Calcium Concentration">
        <DataArray type="Float32" Name="Calcium Concentration" format="ascii" RangeMin="0.6344190239906311" RangeMax="0.744720995426178">
          0.67039 0.693471 0.700324 0.717099 0.708892 0.699918
          0.706565 0.693246 0.710082 0.696015 0.707253 0.695599
          0.698313 0.706628 0.697241 0.696651 0.712068 0.690251
          0.682537 0.713867 0.685655 0.688788 0.677824 0.686778
          0.689493 0.688989 0.705073 0.696749 0.689662 0.705119
          0.705618 0.698374 0.685587 0.68554 0.705561 0.705346
          0.706706 0.701064 0.699322 0.697039 0.69658 0.702261
          0.702874 0.697922 0.701785 0.704706 0.703162 0.706265
          0.694437 0.704642 0.703235 0.683106 0.700436 0.688822
          0.685152 0.671481 0.680496 0.684447 0.688213 0.694786
          0.684292 0.692003 0.70201 0.684117 0.689923 0.696887
          0.649541 0.687847 0.681302 0.687806 0.690506 0.684352
          0.688304 0.692238 0.708129 0.694266 0.695973 0.699903
          0.706706 0.706711 0.712415 0.714686 0.712323 0.70905
          0.693652 0.716659 0.706042 0.710558 0.71568 0.704259
          0.711692 0.703509 0.711972 0.6979 0.714455 0.704155
          0.713124 0.713741 0.709582 0.674054 0.69002 0.693508
          0.709719 0.699149 0.698776 0.699559 0.70383 0.709009
          0.700777 0.691775 0.707082 0.709388 0.696315 0.701741
          0.696416 0.707135 0.711915 0.693692 0.70807 0.700038
          0.688031 0.692224 0.690793 0.697052 0.696604 0.699806
          0.703069 0.696046 0.699446 0.694776 0.693944 0.691654
          0.650823 0.686651 0.68478 0.687066 0.684416 0.686767
          0.683708 0.703597 0.701644 0.690209 0.706532 0.696385
          0.708387 0.691584 0.705432 0.692263 0.699436 0.705558
          0.691076 0.714226 0.695191 0.700815 0.680556 0.693634
          0.685113 0.683393 0.691995 0.693231 0.681871 0.689407
          0.699502 0.700445 0.696001 0.670551 0.698927 0.704159
          0.709457 0.705864 0.701679 0.708035 0.684747 0.704596
          0.706247 0.704706 0.695077 0.698367 0.691658 0.703484
          0.694346 0.686122 0.694341 0.702953 0.691891 0.710799
          0.693854 0.698864 0.704189 0.714774 0.702192 0.703106
          0.702834 0.703695 0.716996 0.709094 0.694212 0.705927
          0.65382 0.686442 0.681254 0.68673 0.69422 0.688527
          0.684136 0.684154 0.726337 0.700102 0.690714 0.705329
          0.688571 0.702937 0.68799 0.697284 0.698127 0.692953
          0.691322 0.69141 0.705792 0.69293 0.705995 0.710184
          0.71673 0.722748 0.710817 0.723257 0.714154 0.715979
          0.71305 0.714458 0.713159 0.66436 0.686962 0.6954
          0.68087 0.705596 0.695086 0.685169 0.685543 0.704029
          0.712951 0.693814 0.689697 0.694845 0.695682 0.708116
          0.702381 0.69812 0.691525 0.692563 0.698095 0.705078
          0.683081 0.681851 0.683583 0.690109 0.697693 0.68733
          0.677867 0.680465 0.686481 0.68643 0.674696 0.695406
          0.666968 0.686927 0.688305 0.678859 0.681229 0.68966
          0.691857 0.697712 0.702788 0.706366 0.694046 0.692335
          0.694182 0.683657 0.697822 0.68569 0.68604 0.710997
          0.697999 0.701183 0.702398 0.6952 0.708035 0.69657
          0.714648 0.70614 0.706667 0.710292 0.709326 0.708029
          0.706292 0.709939 0.719517 0.665842 0.692632 0.699326
          0.706137 0.707719 0.691325 0.696203 0.694536 0.687855
          0.699392 0.69819 0.694315 0.697188 0.699867 0.704953
          0.698103 0.69987 0.707804 0.68354 0.708023 0.706889
          0.68563 0.702676 0.703258 0.70998 0.714282 0.710348
          0.704044 0.694907 0.713102 0.706295 0.714549 0.710157
          0.675842 0.699511 0.700992 0.694552 0.711012 0.691671
          0.708402 0.701976 0.691253 0.704312 0.691949 0.698803
          0.701852 0.696015 0.695415 0.697391 0.689079 0.690751
          0.704108 0.703429 0.713414 0.703755 0.711318 0.715785
          0.701141 0.710704 0.706331 0.706448 0.713347 0.718597
          0.705548 0.706975 0.706287 0.660694 0.67477 0.688397
          0.684129 0.682613 0.689868 0.693236 0.700316 0.700936
          0.70094 0.701835 0.691514 0.699466 0.692485 0.710337
          0.691311 0.702076 0.703984 0.690802 0.699757 0.684631
          0.712746 0.692797 0.6847 0.693828 0.700108 0.693085
          0.6756 0.696891 0.699101 0.697505 0.697313 0.703891
          0.666365 0.698704 0.687861 0.698889 0.691837 0.706193
          0.703919 0.706235 0.701284 0.70156 0.702956 0.702552
          0.692647 0.7021 0.696551 0.701815 0.711954 0.710021
          0.684902 0.697753 0.690334 0.698438 0.687046 0.694992
          0.701957 0.696974 0.687772 0.6957 0.699622 0.697311
          0.696938 0.699476 0.701202 0.675143 0.697138 0.700312
          0.715601 0.696565 0.700617 0.684215 0.708012 0.712468
          0.700196 0.69351 0.685937 0.704453 0.716806 0.707046
          0.70359 0.680671 0.702668 0.686868 0.689981 0.698916
          0.681785 0.685924 0.678501 0.690534 0.689679 0.69347
          0.687259 0.694738 0.700882 0.68555 0.684864 0.694726
          0.651222 0.690555 0.703321 0.690615 0.682545 0.691861
          0.692684 0.685624 0.701775 0.69902 0.717298 0.704302
          0.706734 0.697559 0.69713 0.709457 0.694409 0.70691
          0.709656 0.697349 0.703932 0.713387 0.70754 0.698275
          0.722353 0.700849 0.710401 0.715884 0.7207 0.710587
          0.716375 0.709928 0.708828 0.684289 0.70231 0.700153
          0.712549 0.696476 0.701702 0.704175 0.717455 0.70976
          0.692186 0.708794 0.706316 0.697149 0.696783 0.713443
          0.703391 0.699225 0.705053 0.707334 0.697549 0.686981
          0.689554 0.679833 0.693559 0.689075 0.68771 0.688216
          0.685393 0.702546 0.690195 0.684236 0.681548 0.689872
          0.662625 0.692551 0.690244 0.69412 0.687395 0.694386
          0.687306 0.698084 0.690286 0.704485 0.701651 0.696815
          0.698473 0.687286 0.694726 0.699834 0.702455 0.709065
          0.695986 0.700498 0.691306 0.698261 0.686456 0.685456
          0.680298 0.690352 0.698423 0.706376 0.705925 0.709906
          0.706307 0.680903 0.713223 0.67376 0.683613 0.670518
          0.691195 0.702687 0.682786 0.697644 0.690845 0.709429
          0.694942 0.693096 0.702437 0.697279 0.708011 0.691442
          0.693499 0.698395 0.698801 0.704419 0.693216 0.704374
          0.707253 0.704555 0.711812 0.728941 0.70731 0.698267
          0.710196 0.700321 0.711558 0.710381 0.714851 0.718081
          0.65239 0.689476 0.688181 0.68674 0.689942 0.691559
          0.689218 0.700509 0.698019 0.698964 0.694287 0.697745
          0.703129 0.694751 0.698716 0.702771 0.709671 0.69533
          0.703613 0.699584 0.693544 0.696969 0.686992 0.691706
          0.708375 0.690008 0.687513 0.685574 0.693761 0.698204
          0.686596 0.699083 0.699903 0.665006 0.695695 0.707787
          0.697201 0.703692 0.697941 0.692769 0.690317 0.709242
          0.69683 0.70114 0.69533 0.688585 0.697226 0.688688
          0.697485 0.707039 0.699671 0.694875 0.683693 0.699139
          0.675406 0.678658 0.693178 0.687186 0.687782 0.686573
          0.698283 0.687283 0.694215 0.691429 0.680048 0.68686
          0.674828 0.697856 0.70501 0.689165 0.703537 0.696895
          0.713127 0.687156 0.69302 0.706967 0.692717 0.697757
          0.704655 0.687372 0.695318 0.70645 0.702313 0.713522
          0.695344 0.699012 0.69185 0.677443 0.688777 0.686726
          0.69097 0.691018 0.692351 0.695986 0.690482 0.697278
          0.695266 0.699209 0.691272 0.66602 0.702114 0.691618
          0.705257 0.694477 0.707008 0.713638 0.68735 0.708942
          0.69974 0.686483 0.720242 0.692624 0.693341 0.703448
          0.693023 0.711867 0.690736 0.714956 0.699815 0.711807
          0.704957 0.71141 0.698847 0.718113 0.704762 0.692493
          0.716421 0.70461 0.727835 0.702389 0.700769 0.705539
          0.688698 0.683701 0.703696 0.717646 0.698896 0.702852
          0.695386 0.700005 0.700916 0.700276 0.703072 0.701618
          0.699759 0.690786 0.682371 0.711531 0.700627 0.698126
          0.699214 0.70408 0.723297 0.688027 0.713855 0.706895
          0.71302 0.704327 0.706632 0.695452 0.694971 0.71962
          0.718673 0.728253 0.708809 0.681086 0.707644 0.692154
          0.701186 0.694999 0.699712 0.703875 0.693949 0.705027
          0.693234 0.703959 0.696912 0.715829 0.693901 0.705571
          0.711591 0.703647 0.699068 0.687586 0.707218 0.707158
          0.717275 0.70271 0.712685 0.71766 0.715104 0.713998
          0.715705 0.703109 0.705649 0.711372 0.717874 0.714922
          0.669884 0.695353 0.696144 0.708748 0.694993 0.704318
          0.706424 0.70198 0.709489 0.69786 0.701474 0.680396
          0.693929 0.692202 0.702911 0.712851 0.690492 0.698131
          0.689688 0.692631 0.681738 0.679193 0.704684 0.677833
          0.703079 0.691693 0.691375 0.693166 0.699725 0.691273
          0.683935 0.69316 0.690079 0.660856 0.703957 0.700524
          0.701383 0.704105 0.700589 0.710258 0.695186 0.711137
          0.69534 0.711526 0.70269 0.712402 0.69873 0.703025
          0.698154 0.708329 0.701937 0.712242 0.705531 0.690912
          0.687957 0.689786 0.686972 0.691767 0.698934 0.693863
          0.696946 0.70153 0.691689 0.687086 0.699204 0.698827
          0.669493 0.690065 0.703319 0.707526 0.712621 0.69433
          0.697145 0.694942 0.699271 0.715152 0.69225 0.698881
          0.689515 0.702458 0.697986 0.712529 0.708149 0.681557
          0.688779 0.705418 0.701835 0.689997 0.692417 0.690174
          0.703837 0.684812 0.685372 0.682084 0.688441 0.688952
          0.679783 0.689804 0.680285 0.659643 0.691756 0.690979
          0.686277 0.69687 0.690456 0.702168 0.690477 0.705059
          0.698316 0.686642 0.69571 0.691742 0.691977 0.696166
          0.69395 0.704221 0.689691 0.690229 0.70265 0.695713
          0.693324 0.689776 0.691976 0.698217 0.684853 0.684595
          0.683468 0.690754 0.713937 0.696662 0.679233 0.700135
          0.670447 0.703349 0.680906 0.691858 0.703897 0.695924
          0.710697 0.70124 0.712078 0.694505 0.679009 0.704524
          0.701797 0.696745 0.694666 0.693445 0.705157 0.691381
          0.700714 0.699761 0.683812 0.682445 0.685071 0.698129
          0.69254 0.680736 0.681481 0.70966 0.696477 0.687989
          0.697771 0.684555 0.682152 0.674869 0.696016 0.695705
          0.702203 0.697106 0.695444 0.703094 0.701473 0.710436
          0.691658 0.698214 0.703198 0.693951 0.681208 0.722269
          0.69354 0.699954 0.708375 0.69389 0.706673 0.688344
          0.690727 0.686782 0.687128 0.698845 0.679491 0.701821
          0.696618 0.686198 0.694398 0.682741 0.671609 0.687316
          0.656626 0.688888 0.690782 0.690058 0.690777 0.680692
          0.692236 0.695866 0.691908 0.707143 0.702142 0.701485
          0.704469 0.710668 0.712524 0.698781 0.695291 0.696972
          0.704649 0.691101 0.715902 0.711653 0.710731 0.712328
          0.71691 0.715925 0.694751 0.708048 0.712758 0.691067
          0.702663 0.701856 0.723132 0.656832 0.697039 0.69886
          0.687919 0.704983 0.701493 0.688123 0.688992 0.697492
          0.692591 0.689606 0.697995 0.699024 0.687729 0.699849
          0.683536 0.711214 0.704494 0.684593 0.695789 0.691192
          0.728311 0.709048 0.692521 0.711516 0.690478 0.711501
          0.717151 0.711724 0.714526 0.707801 0.712488 0.707647
          0.674377 0.69831 0.699417 0.711809 0.709016 0.703422
          0.701209 0.685747 0.72034 0.695969 0.694946 0.706991
          0.69812 0.694286 0.700962 0.702225 0.7032 0.706603
          0.699145 0.69846 0.704109 0.69992 0.70423 0.697207
          0.697324 0.706746 0.702119 0.704123 0.703079 0.715646
          0.720072 0.709769 0.706341 0.661959 0.684628 0.700644
          0.685565 0.684547 0.695615 0.693158 0.691394 0.688863
          0.713791 0.708706 0.691276 0.701518 0.701752 0.701748
          0.700224 0.695051 0.713688 0.67686 0.714333 0.695531
          0.690566 0.703568 0.702911 0.687848 0.699229 0.697995
          0.687971 0.69222 0.691364 0.686419 0.708158 0.70131
          0.660055 0.700703 0.68575 0.674665 0.684544 0.685364
          0.691349 0.689471 0.704538 0.702539 0.704061 0.695912
          0.701956 0.705872 0.70036 0.698195 0.691001 0.704379
          0.704933 0.705315 0.695092 0.687537 0.682504 0.68288
          0.69197 0.701207 0.698273 0.682676 0.7052 0.683689
          0.694354 0.683263 0.683217 0.644443 0.682687 0.702474
          0.695059 0.694972 0.675345 0.693384 0.699054 0.6885
          0.688529 0.69624 0.700355 0.704837 0.709328 0.712666
          0.704091 0.704202 0.69724 0.704198 0.693034 0.708434
          0.68961 0.699509 0.719024 0.705579 0.697247 0.708869
          0.692627 0.701773 0.696012 0.687203 0.68644 0.693904
          0.668155 0.690083 0.702984 0.707202 0.694354 0.697391
          0.695302 0.706195 0.704423 0.692515 0.711998 0.690305
          0.703848 0.702906 0.696003 0.69329 0.701354 0.699258
          0.710997 0.701299 0.684034 0.691782 0.679813 0.689309
          0.69763 0.686116 0.686495 0.697306 0.697911 0.690155
          0.681153 0.692175 0.686763 0.635911 0.673742 0.696716
          0.704034 0.679722 0.690454 0.691363 0.704803 0.703537
          0.695109 0.687586 0.707423 0.700805 0.698609 0.702965
          0.688943 0.699122 0.694193 0.702292 0.697734 0.697795
          0.704376 0.710452 0.705592 0.704867 0.710248 0.72402
          0.709355 0.717092 0.698952 0.715868 0.709926 0.725303
          0.680383 0.699229 0.704568 0.69826 0.695803 0.690219
          0.696188 0.698434 0.702213 0.694793 0.711637 0.701672
          0.691088 0.700814 0.692854 0.704348 0.702378 0.712847
          0.704382 0.715007 0.697697 0.69782 0.705166 0.707413
          0.699266 0.710708 0.688096 0.678504 0.692899 0.701829
          0.68382 0.694058 0.691183 0.669584 0.697727 0.695975
          0.695447 0.70118 0.694276 0.695648 0.694287 0.6891
          0.70278 0.691671 0.712238 0.703326 0.68758 0.712802
          0.693226 0.709268 0.687379 0.699289 0.713027 0.695975
          0.692076 0.682305 0.698451 0.686163 0.685569 0.686956
          0.69073 0.699372 0.709828 0.703361 0.685358 0.687588
          0.665291 0.709392 0.710294 0.706619 0.685354 0.7012
          0.701473 0.703074 0.701875 0.704597 0.707796 0.695843
          0.703004 0.706886 0.701211 0.712295 0.709203 0.688709
          0.702096 0.704055 0.695619 0.697641 0.699055 0.703554
          0.681436 0.712101 0.686459 0.69831 0.699282 0.681858
          0.693777 0.679839 0.693628 0.675162 0.714675 0.703625
          0.691689 0.697039 0.697915 0.703858 0.693968 0.709574
          0.70525 0.700808 0.697989 0.697933 0.685224 0.714846
          0.703953 0.713286 0.707716 0.692379 0.688995 0.710679
          0.709467 0.700067 0.717503 0.720983 0.707288 0.711175
          0.709982 0.710658 0.710445 0.70391 0.700477 0.712481
          0.666807 0.690129 0.70037 0.701159 0.705294 0.709438
          0.698367 0.700409 0.704727 0.716505 0.693918 0.697365
          0.690023 0.71231 0.687547 0.707164 0.702485 0.69483
          0.690671 0.686942 0.686013 0.689519 0.69391 0.686616
          0.702207 0.693194 0.687117 0.68436 0.693075 0.693888
          0.701986 0.689156 0.67933 0.673719 0.693796 0.688526
          0.699495 0.705856 0.701654 0.704243 0.698521 0.699459
          0.700435 0.697939 0.698162 0.706668 0.691997 0.701968
          0.699036 0.709404 0.709927 0.687886 0.706893 0.707227
          0.706963 0.710695 0.702657 0.71431 0.714231 0.694823
          0.711515 0.719107 0.70102 0.704886 0.712569 0.709438
          0.65107 0.692396 0.69935 0.69196 0.683259 0.695505
          0.702435 0.706664 0.699267 0.690842 0.693081 0.687725
          0.706262 0.707795 0.703128 0.70196 0.706857 0.704676
          0.707664 0.7056 0.712253 0.705817 0.707343 0.732389
          0.706859 0.712068 0.725979 0.724885 0.715651 0.698328
          0.719961 0.711084 0.699848 0.642472 0.685479 0.686116
          0.686614 0.693432 0.699843 0.698813 0.679439 0.691842
          0.725189 0.70256 0.692409 0.696562 0.700365 0.710111
          0.697571 0.712183 0.680908 0.698938 0.699042 0.707308
          0.717037 0.709224 0.70024 0.722093 0.715471 0.710435
          0.690724 0.715052 0.70232 0.711201 0.7123 0.718394
          0.659486 0.673967 0.686033 0.682941 0.678299 0.690439
          0.685952 0.699249 0.712926 0.694742 0.695765 0.712811
          0.700773 0.698178 0.696136 0.704905 0.699803 0.706894
          0.687703 0.711646 0.706982 0.718603 0.704422 0.70067
          0.701102 0.695089 0.702594 0.698666 0.709378 0.70402
          0.717422 0.715268 0.712622 0.686148 0.693343 0.688726
          0.699522 0.705752 0.70059 0.688157 0.70591 0.701407
          0.698944 0.682602 0.696828 0.700703 0.691586 0.704025
          0.704141 0.707081 0.705974 0.704958 0.699497 0.698508
          0.723044 0.708655 0.69514 0.713152 0.704727 0.715308
          0.707486 0.70681 0.720142 0.708503 0.696996 0.721693
          0.663485 0.682114 0.699241 0.699073 0.700018 0.713255
          0.685532 0.686517 0.687621 0.71759 0.71776 0.705067
          0.702665 0.685071 0.710105 0.696707 0.701206 0.702401
          0.699388 0.694233 0.698556 0.679578 0.704634 0.696381
          0.690661 0.693981 0.689728 0.682075 0.689994 0.697784
          0.704195 0.69452 0.703601 0.665407 0.697967 0.704422
          0.697259 0.701322 0.697784 0.717051 0.712977 0.692383
          0.686043 0.69448 0.696939 0.692567 0.713889 0.709972
          0.687518 0.692 0.701211 0.700843 0.694295 0.700542
          0.694055 0.69 0.687609 0.705316 0.707865 0.704221
          0.699666 0.696856 0.695422 0.688478 0.690244 0.687958
          0.66565 0.703047 0.687682 0.692576 0.683748 0.690509
          0.701722 0.700483 0.698426 0.68683 0.688625 0.68531
          0.70418 0.708941 0.706892 0.691866 0.700228 0.695908
          0.705035 0.689824 0.682568 0.697279 0.698769 0.699015
          0.703476 0.689928 0.696443 0.691203 0.706548 0.682689
          0.696311 0.697777 0.711521 0.645551 0.697294 0.690218
          0.706767 0.678636 0.690502 0.702523 0.696745 0.682403
          0.696561 0.708707 0.699694 0.704838 0.710706 0.711585
          0.692252 0.689197 0.705727 0.699737 0.693244 0.724535
          0.711785 0.703955 0.719862 0.716493 0.706545 0.706708
          0.710706 0.709922 0.696234 0.709588 0.711887 0.707246
          0.638073 0.684801 0.708677 0.696197 0.678281 0.670855
          0.68953 0.697614 0.686727 0.70485 0.705688 0.699249
          0.707399 0.702311 0.702983 0.702457 0.702068 0.694141
          0.702176 0.701679 0.702128 0.696569 0.698047 0.705115
          0.673444 0.690562 0.700471 0.688384 0.684824 0.693456
          0.698014 0.69325 0.706974 0.675496 0.693528 0.681727
          0.686879 0.684683 0.707444 0.679169 0.6693 0.708675
          0.704215 0.688378 0.706743 0.688966 0.687905 0.697971
          0.703282 0.703462 0.698939 0.694358 0.702867 0.69671
          0.696763 0.696902 0.676236 0.696523 0.70584 0.69647
          0.672898 0.698626 0.692699 0.692029 0.712814 0.678635
          0.68126 0.705577 0.712051 0.685871 0.702073 0.704215
          0.718468 0.698006 0.712974 0.700222 0.692228 0.700884
          0.697275 0.680205 0.701094 0.702761 0.699147 0.692325
          0.701581 0.702896 0.698694 0.696252 0.706179 0.717551
          0.710737 0.713822 0.702163 0.707542 0.712565 0.717764
          0.710277 0.714865 0.718168 0.675799 0.704973 0.702629
          0.696837 0.699229 0.689489 0.684834 0.694323 0.71286
          0.697458 0.694443 0.704362 0.699381 0.689289 0.687552
          0.708238 0.702491 0.687993 0.691141 0.698422 0.704958
          0.706753 0.701749 0.709638 0.685155 0.704072 0.712304
          0.702794 0.702459 0.712523 0.704241 0.718108 0.700644
          0.639835 0.693918 0.691329 0.684023 0.688339 0.691556
          0.685609 0.698287 0.697673 0.700983 0.694398 0.710479
          0.69635 0.708307 0.709985 0.702397 0.700856 0.702501
          0.692421 0.700128 0.698842 0.690669 0.693966 0.708487
          0.701798 0.699631 0.707444 0.703221 0.702109 0.682222
          0.703613 0.700564 0.695651 0.679062 0.707596 0.709168
          0.705015 0.701531 0.706637 0.701289 0.704827 0.683989
          0.706287 0.706428 0.695117 0.690756 0.696135 0.699714
          0.697674 0.684507 0.690403 0.700813 0.69164 0.711901
          0.700129 0.705025 0.70975 0.709234 0.698247 0.699669
          0.712528 0.699724 0.699065 0.710589 0.716895 0.709976
          0.655728 0.689315 0.679544 0.690612 0.684992 0.692076
          0.693316 0.705347 0.711163 0.700425 0.707705 0.697838
          0.697346 0.70351 0.69134 0.710979 0.693337 0.699508
          0.691653 0.697254 0.712747 0.689164 0.685173 0.69639
          0.680085 0.681713 0.690739 0.696121 0.688583 0.685375
          0.689809 0.686367 0.700083 0.674553 0.702327 0.693152
          0.692075 0.712941 0.681268 0.69281 0.700402 0.694699
          0.717865 0.709419 0.697619 0.702229 0.701052 0.690969
          0.706722 0.698746 0.699431 0.702754 0.694951 0.697527
          0.691055 0.691401 0.700241 0.699029 0.697648 0.701901
          0.682996 0.694247 0.680971 0.682 0.688401 0.680746
          0.684858 0.701867 0.693299 0.695455 0.698314 0.688337
          0.690213 0.700115 0.705921 0.705792 0.699728 0.700654
          0.696019 0.696956 0.698033 0.700419 0.693239 0.7008
          0.701421 0.701236 0.689866 0.696697 0.693221 0.693368
          0.694288 0.693943 0.700628 0.681374 0.690086 0.676784
          0.682822 0.702491 0.691309 0.686967 0.703355 0.695734
          0.706233 0.711093 0.68053 0.700768 0.701345 0.69511
          0.706718 0.702818 0.706134 0.708191 0.701682 0.709448
          0.699552 0.706561 0.693699 0.717628 0.692714 0.687606
          0.683765 0.674815 0.688686 0.697948 0.686954 0.686016
          0.68394 0.692274 0.703845 0.69003 0.681621 0.691818
          0.655973 0.687267 0.698041 0.690639 0.689519 0.683631
          0.702902 0.692645 0.683046 0.691862 0.71328 0.702373
          0.702251 0.698184 0.692979 0.694853 0.70429 0.703125
          0.707269 0.690203 0.724516 0.714687 0.712437 0.708237
          0.701754 0.729908 0.717413 0.72764 0.713742 0.70074
          0.726257 0.709638 0.708215 0.658614 0.687216 0.687525
          0.681451 0.676018 0.687904 0.711481 0.699177 0.697518
          0.694838 0.711385 0.693098 0.705837 0.714678 0.693645
          0.701957 0.693737 0.710989 0.700231 0.707636 0.690873
          0.687434 0.680111 0.693592 0.688807 0.694883 0.702938
          0.68525 0.689813 0.683375 0.693476 0.69608 0.695179
          0.666928 0.691094 0.683027 0.703716 0.691848 0.688084
          0.687422 0.681594 0.700564 0.701794 0.707627 0.700372
          0.706321 0.693757 0.702803 0.697509 0.700929 0.703498
          0.698153 0.6956 0.723963 0.716919 0.704131 0.731902
          0.711018 0.701841 0.704134 0.69583 0.716619 0.727869
          0.717319 0.707851 0.700872 0.639586 0.692488 0.710689
          0.706214 0.695288 0.70391 0.71336 0.708774 0.688579
          0.712008 0.69454 0.704426 0.705672 0.705527 0.705743
          0.692511 0.704588 0.703011 0.704601 0.695066 0.707625
          0.702986 0.700161 0.710176 0.700594 0.703915 0.694894
          0.698421 0.689257 0.676635 0.673864 0.690284 0.68535
          0.665574 0.70422 0.697539 0.696498 0.701143 0.696825
          0.705682 0.702959 0.696989 0.698852 0.703449 0.705933
          0.710192 0.698895 0.71231 0.695676 0.697302 0.704861
          0.690167 0.704719 0.681426 0.705434 0.688749 0.693735
          0.68952 0.706814 0.681023 0.684057 0.693585 0.701345
          0.68658 0.70339 0.685782 0.659525 0.708058 0.698355
          0.691887 0.699263 0.700221 0.704039 0.695904 0.704133
          0.70287 0.706794 0.693112 0.701073 0.713197 0.689041
          0.707185 0.710408 0.699576 0.710796 0.709443 0.698287
          0.682491 0.697133 0.703192 0.701126 0.696857 0.691744
          0.690524 0.711403 0.681349 0.687163 0.693519 0.694716
          0.669882 0.705046 0.70428 0.694354 0.692439 0.694813
          0.690619 0.690655 0.685958 0.6875 0.689217 0.703724
          0.70815 0.690715 0.689148 0.70846 0.704441 0.697283
          0.699145 0.694161 0.694867 0.708925 0.708625 0.703645
          0.699098 0.712311 0.702363 0.716941 0.714343 0.707626
          0.693537 0.719601 0.710605 0.660532 0.678015 0.686998
          0.689754 0.69672 0.695144 0.691098 0.69674 0.695728
          0.707352 0.712691 0.69 0.705504 0.684458 0.691951
          0.692233 0.70116 0.700249 0.696348 0.697606 0.687552
          0.68664 0.687113 0.684645 0.692452 0.699222 0.682088
          0.68979 0.693319 0.695253 0.699154 0.695577 0.682903
          0.682927 0.701164 0.688207 0.704386 0.696377 0.699458
          0.687634 0.693802 0.698916 0.717708 0.680697 0.717752
          0.711057 0.696996 0.701088 0.699881 0.713629 0.694247
          0.69134 0.695341 0.692607 0.676572 0.690223 0.696485
          0.69457 0.677424 0.69898 0.679398 0.685658 0.690032
          0.689038 0.703308 0.700765 0.657688 0.701301 0.691443
          0.704478 0.692117 0.69299 0.698104 0.704388 0.686755
          0.703411 0.700151 0.698738 0.703686 0.700458 0.718117
          0.684145 0.686565 0.708051 0.71166 0.70168 0.698058
          0.712545 0.708067 0.704252 0.700465 0.697943 0.704639
          0.699755 0.702941 0.699199 0.6921 0.708799 0.703528
          0.672301 0.702143 0.700963 0.691978 0.702784 0.693591
          0.709198 0.69485 0.700823 0.692084 0.706125 0.69775
          0.700912 0.713141 0.714904 0.687502 0.704154 0.706223
          0.684597 0.699601 0.716561 0.705777 0.705916 0.719991
          0.718092 0.699536 0.693428 0.714417 0.704616 0.690334
          0.71243 0.715016 0.717401 0.654861 0.685919 0.687536
          0.694639 0.694964 0.685109 0.685119 0.693185 0.711854
          0.701035 0.704736 0.691487 0.699689 0.705069 0.70395
          0.710043 0.686846 0.71035 0.688655 0.707335 0.71979
          0.718992 0.710859 0.712952 0.703187 0.692452 0.697393
          0.704452 0.703188 0.706404 0.709315 0.708853 0.711447
          0.65453 0.695928 0.692175 0.685649 0.687839 0.695578
          0.705706 0.694862 0.689117 0.685901 0.697491 0.700718
          0.701365 0.705347 0.699155 0.684304 0.681855 0.699297
          0.702977 0.705627 0.721241 0.723284 0.713616 0.715532
          0.711468 0.702962 0.715932 0.707054 0.704354 0.699173
          0.706023 0.706257 0.712549 0.676169 0.696463 0.683791
          0.70185 0.698814 0.697062 0.694531 0.69228 0.704673
          0.706472 0.697296 0.700703 0.696584 0.701181 0.698595
          0.684553 0.71754 0.699753 0.703806 0.70036 0.717544
          0.704756 0.703024 0.709829 0.707367 0.709743 0.72794
          0.695202 0.707878 0.703116 0.710773 0.735527 0.699593
          0.658867 0.692575 0.715432 0.701345 0.701414 0.687286
          0.69893 0.709951 0.704884 0.682281 0.702517 0.701941
          0.707884 0.686694 0.686327 0.691948 0.705443 0.696797
          0.708187 0.709317 0.708971 0.701236 0.698189 0.711334
          0.705299 0.704233 0.709764 0.718223 0.709545 0.696812
          0.693175 0.712397 0.699846 0.656159 0.684173 0.675743
          0.685636 0.689665 0.688725 0.700055 0.705851 0.695483
          0.707571 0.68831 0.71209 0.703877 0.683597 0.705346
          0.693065 0.695248 0.693401 0.699878 0.708637 0.701154
          0.704376 0.705056 0.697309 0.695821 0.704894 0.695696
          0.696489 0.684335 0.71255 0.706993 0.704672 0.719549
          0.671823 0.697001 0.707602 0.695626 0.705129 0.695202
          0.721995 0.695228 0.695452 0.70448 0.710612 0.688954
          0.71253 0.6951 0.702647 0.700009 0.686308 0.701116
          0.695098 0.687374 0.708192 0.697271 0.700222 0.709808
          0.704545 0.711451 0.719031 0.696021 0.709318 0.692491
          0.706373 0.710457 0.705753 0.657935 0.683824 0.689955
          0.696679 0.694399 0.696813 0.682973 0.69812 0.687051
          0.701023 0.702837 0.689672 0.708074 0.697998 0.700931
          0.709907 0.691198 0.696114 0.704119 0.691141 0.704755
          0.718732 0.695741 0.695567 0.713411 0.717514 0.706814
          0.711918 0.705595 0.698408 0.693546 0.701463 0.706547
          0.676107 0.700431 0.701754 0.685999 0.724888 0.69824
          0.699171 0.689754 0.701174 0.702437 0.726762 0.700184
          0.687055 0.683845 0.710422 0.693347 0.705309 0.699219
          0.706667 0.684466 0.698106 0.712021 0.709008 0.701484
          0.705566 0.706738 0.698887 0.708013 0.703285 0.710258
          0.721861 0.713604 0.71778 0.646829 0.694273 0.678437
          0.704017 0.682582 0.694366 0.696297 0.707777 0.699349
          0.695754 0.700411 0.691581 0.698064 0.694948 0.697225
          0.692046 0.687898 0.706964 0.705415 0.68344 0.692885
          0.694426 0.705807 0.705409 0.704926 0.697944 0.694265
          0.701254 0.702343 0.677426 0.695329 0.700811 0.701615
          0.667715 0.706866 0.697669 0.70929 0.70408 0.69361
          0.706248 0.699657 0.700439 0.70139 0.709972 0.688492
          0.706788 0.688556 0.704218 0.710033 0.705136 0.699819
          0.709026 0.706029 0.686218 0.705258 0.695313 0.700448
          0.697419 0.692039 0.695515 0.693505 0.687359 0.683836
          0.678265 0.697641 0.698338 0.693205 0.690248 0.692899
          0.71156 0.693637 0.701826 0.695164 0.705363 0.715662
          0.699685 0.693487 0.706649 0.686186 0.702182 0.700265
          0.698078 0.708247 0.6971 0.684704 0.702743 0.696928
          0.689423 0.688767 0.674433 0.687497 0.699298 0.690718
          0.68339 0.700272 0.706654 0.690703 0.692688 0.689674
          0.686847 0.69499 0.703342 0.689598 0.693831 0.706254
          0.706353 0.687297 0.701861 0.6996 0.697998 0.715019
          0.684774 0.689894 0.694787 0.707997 0.699851 0.696923
          0.69286 0.699214 0.695792 0.705454 0.701291 0.68558