<?xml version="1.0"?>
<VTKFile type="PolyData" version="0.1" byte_order="LittleEndian" header_type="UInt32" compressor="vtkZLibDataCompressor">
  <PolyData>
    <Piece NumberOfPoints="7920" NumberOfVerts="0" NumberOfLines="0" NumberOfStrips="0" NumberOfPolys="0">
      <PointData Scalars="Calcium Concentration">
        <DataArray type="Float32" Name="Calcium Concentration" format="ascii" RangeMin="0.5817499756813049" RangeMax="0.7410380244255066">
          0.611293 0.713838 0.710944 0.695516 0.694394 0.692296
          0.697457 0.723541 0.700036 0.684852 0.705224 0.697361
          0.697607 0.702094 0.697809 0.700502 0.69466 0.702558
          0.694968 0.72172 0.692242 0.681219 0.688037 0.696773
          0.69096 0.688686 0.705767 0.690514 0.689671 0.692126
          0.715292 0.695812 0.678761 0.633163 0.69371 0.699206
          0.702375 0.690479 0.69846 0.692351 0.705175 0.697718
          0.702947 0.693753 0.701253 0.693948 0.691212 0.713885
          0.687681 0.709428 0.694183 0.69188 0.704982 0.686694
          0.696255 0.676764 0.688476 0.678705 0.689641 0.686704
          0.681769 0.689551 0.694091 0.696808 0.678256 0.693837
          0.606176 0.689296 0.705286 0.689774 0.694309 0.687152
          0.695367 0.693496 0.701975 0.70365 0.705478 0.69835
          0.687615 0.70364 0.701436 0.70334 0.704902 0.714644
          0.70892 0.698681 0.716854 0.705384 0.71309 0.696875
          0.712795 0.706311 0.699388 0.710204 0.713472 0.698343
          0.712442 0.705092 0.710934 0.609214 0.699884 0.709265
          0.709676 0.693368 0.688582 0.707637 0.695836 0.704641
          0.699603 0.692898 0.694065 0.701595 0.696583 0.706363
          0.693984 0.70023 0.699758 0.70425 0.70791 0.692317
          0.694612 0.694441 0.696006 0.688429 0.711404 0.70334
          0.692676 0.708461 0.697727 0.704824 0.69555 0.698012
          0.594883 0.682117 0.688726 0.700519 0.685998 0.690268
          0.690564 0.707087 0.691959 0.697992 0.702704 0.696053
          0.704579 0.701318 0.702742 0.696873 0.693646 0.696906
          0.694555 0.70628 0.691724 0.695704 0.694155 0.68905
          0.696212 0.693983 0.685857 0.700979 0.686013 0.688398
          0.695891 0.696277 0.694018 0.618823 0.701013 0.700663
          0.703913 0.699951 0.699092 0.700375 0.698922 0.713745
          0.709706 0.698411 0.703454 0.700215 0.698387 0.702757
          0.695053 0.705294 0.690069 0.710447 0.69512 0.702094
          0.703022 0.696079 0.696855 0.715476 0.702787 0.701868
          0.693338 0.695334 0.710196 0.727572 0.710971 0.705658
          0.609486 0.672968 0.68768 0.691567 0.689973 0.699513
          0.684226 0.69771 0.710266 0.710803 0.69222 0.696868
          0.698563 0.711802 0.697045 0.702554 0.690791 0.702264
          0.705648 0.687024 0.705377 0.705477 0.698816 0.710572
          0.699169 0.718496 0.708559 0.716982 0.722428 0.705472
          0.727892 0.710374 0.715435 0.606904 0.67975 0.67919
          0.694083 0.681956 0.698361 0.678252 0.673024 0.709519
          0.706094 0.686372 0.70527 0.699486 0.694999 0.698878
          0.689874 0.699883 0.698616 0.70466 0.698983 0.688494
          0.68393 0.679189 0.691679 0.699505 0.693532 0.698414
          0.684674 0.696113 0.673944 0.708776 0.686914 0.694351
          0.603871 0.702641 0.685874 0.697793 0.695282 0.692249
          0.686177 0.702718 0.698873 0.692041 0.701173 0.702876
          0.695584 0.692032 0.697706 0.70663 0.705734 0.686204
          0.694012 0.697276 0.703162 0.697242 0.707888 0.703028
          0.712275 0.71948 0.708985 0.699473 0.702624 0.707786
          0.713384 0.709503 0.718892 0.624055 0.700446 0.703425
          0.705689 0.70397 0.692423 0.703114 0.696658 0.6968
          0.695241 0.710536 0.695639 0.7051 0.700878 0.698199
          0.692134 0.699563 0.697301 0.688091 0.708686 0.70154
          0.695446 0.706116 0.700173 0.70551 0.710778 0.706228
          0.704004 0.703045 0.70513 0.717822 0.697172 0.705894
          0.629126 0.696016 0.699443 0.69644 0.696184 0.690514
          0.70571 0.694251 0.700396 0.696186 0.700837 0.708586
          0.697719 0.70074 0.701 0.716672 0.696635 0.699062
          0.69337 0.695143 0.709692 0.705743 0.72231 0.696961
          0.695827 0.711912 0.7096 0.701053 0.70412 0.708289
          0.716218 0.717874 0.708211 0.608222 0.68566 0.691492
          0.684273 0.678892 0.685116 0.685994 0.708219 0.693503
          0.696993 0.699422 0.695313 0.700074 0.702348 0.705137
          0.693182 0.705802 0.710254 0.697784 0.710205 0.69709
          0.69343 0.689807 0.67289 0.679197 0.695172 0.68043
          0.687951 0.689733 0.688753 0.704233 0.693874 0.708073
          0.618653 0.696445 0.68668 0.727768 0.694946 0.710349
          0.707111 0.694432 0.703446 0.688401 0.690581 0.698379
          0.708484 0.693854 0.6931 0.699052 0.694865 0.703072
          0.693223 0.709406 0.692049 0.700888 0.690805 0.68569
          0.69788 0.694639 0.688107 0.698647 0.69389 0.696063
          0.700993 0.69322 0.694829 0.622755 0.696336 0.696524
          0.715161 0.704163 0.700174 0.706151 0.717064 0.703388
          0.698663 0.697935 0.700147 0.693796 0.694439 0.712694
          0.699075 0.688659 0.695908 0.705202 0.683755 0.697264
          0.700721 0.686733 0.682569 0.683295 0.693602 0.689417
          0.691235 0.692059 0.68001 0.698905 0.687668 0.695819
          0.603298 0.673528 0.696259 0.692245 0.681173 0.678365
          0.681765 0.705395 0.677438 0.695506 0.710246 0.690035
          0.701089 0.696866 0.704463 0.699348 0.709254 0.705445
          0.699292 0.694343 0.696458 0.705979 0.701013 0.712222
          0.70626 0.701093 0.713308 0.724698 0.712505 0.717828
          0.710136 0.709276 0.712782 0.621555 0.69608 0.699167
          0.709735 0.703653 0.699211 0.698827 0.705492 0.702381
          0.710686 0.703705 0.698163 0.699751 0.700052 0.69204
          0.698682 0.696835 0.702328 0.698656 0.706108 0.683841
          0.687695 0.693352 0.68655 0.684213 0.697903 0.690943
          0.692956 0.690133 0.685688 0.70363 0.677133 0.687623
          0.604925 0.690583 0.676828 0.687911 0.684877 0.692977
          0.688985 0.70121 0.693465 0.696526 0.697464 0.693169
          0.706199 0.687736 0.688108 0.692098 0.697183 0.71926
          0.690958 0.691764 0.69249 0.687825 0.69934 0.683121
          0.691785 0.687944 0.692227 0.695097 0.693489 0.706071
          0.700175 0.693731 0.687175 0.607107 0.68709 0.680297
          0.682952 0.694945 0.68488 0.687419 0.708766 0.700052
          0.702499 0.690431 0.697963 0.704954 0.711614 0.686446
          0.71181 0.695825 0.696835 0.70779 0.693738 0.70843
          0.726529 0.698459 0.705224 0.710816 0.715937 0.69882
          0.694242 0.712859 0.699676 0.727142 0.702795 0.719328
          0.593399 0.686548 0.686419 0.683949 0.696495 0.679409
          0.693149 0.711944 0.699383 0.69788 0.710653 0.706886
          0.702795 0.707175 0.71083 0.703499 0.696348 0.693407
          0.688945 0.699741 0.690822 0.705495 0.680312 0.683636
          0.699926 0.687746 0.690331 0.682671 0.703779 0.683909
          0.704588 0.699489 0.712046 0.620823 0.699403 0.702536
          0.703289 0.697632 0.69805 0.70085 0.698465 0.700808
          0.698026 0.695553 0.711036 0.697205 0.709925 0.702519
          0.712759 0.711929 0.698084 0.7045 0.694279 0.699738
          0.68411 0.686362 0.686087 0.686186 0.689811 0.687631
          0.693682 0.690243 0.687326 0.692512 0.682108 0.685197
          0.624393 0.713312 0.708811 0.716838 0.708689 0.687619
          0.694638 0.697927 0.717954 0.699527 0.704821 0.704373
          0.698232 0.699098 0.691633 0.710265 0.706819 0.705134
          0.690271 0.697188 0.693892 0.692091 0.68019 0.694186
          0.693095 0.694542 0.688561 0.691202 0.692899 0.695545
          0.70356 0.695079 0.689833 0.620166 0.711796 0.697874
          0.699526 0.695056 0.696052 0.718607 0.686279 0.710073
          0.706822 0.693134 0.711418 0.696907 0.703673 0.709183
          0.69718 0.699502 0.697242 0.708327 0.69001 0.706069
          0.703452 0.710606 0.710515 0.705721 0.714833 0.704557
          0.704046 0.721081 0.713247 0.707853 0.703451 0.701828
          0.622532 0.704092 0.696503 0.728887 0.700776 0.689365
          0.691506 0.704504 0.710133 0.692782 0.699276 0.69974
          0.700587 0.705982 0.680325 0.721756 0.707603 0.686011
          0.692411 0.694918 0.730289 0.688805 0.703465 0.702035
          0.707685 0.719738 0.70869 0.712482 0.716627 0.72279
          0.727726 0.709056 0.716487 0.623932 0.715904 0.696978
          0.699223 0.69701 0.69597 0.703627 0.70625 0.709394
          0.703057 0.700005 0.701659 0.709698 0.698771 0.703778
          0.710576 0.685894 0.71195 0.69578 0.691945 0.706408
          0.71245 0.724323 0.70526 0.717 0.712765 0.715283
          0.714303 0.708885 0.702105 0.723542 0.712488 0.7022
          0.616892 0.685879 0.701771 0.700957 0.703966 0.699119
          0.695694 0.696128 0.716216 0.704737 0.689735 0.6914
          0.69972 0.686519 0.71238 0.694087 0.700215 0.684594
          0.695516 0.706539 0.685922 0.680153 0.684542 0.687293
          0.695324 0.703179 0.688604 0.693016 0.678294 0.694661
          0.688821 0.689703 0.691904 0.624364 0.694011 0.699031
          0.68058 0.700044 0.694868 0.711783 0.70122 0.703579
          0.695756 0.700309 0.694515 0.693333 0.69069 0.715245
          0.699758 0.698935 0.701996 0.698796 0.70789 0.692557
          0.685089 0.685631 0.691677 0.68008 0.696522 0.684048
          0.690537 0.700982 0.700864 0.687132 0.697439 0.704436
          0.611952 0.712593 0.69912 0.716053 0.699795 0.689448
          0.692912 0.698138 0.72054 0.699029 0.701998 0.702564
          0.68714 0.706426 0.692251 0.709824 0.697752 0.697187
          0.704133 0.699577 0.702928 0.686929 0.683928 0.681577
          0.692635 0.68874 0.684143 0.681132 0.681485 0.689525
          0.69421 0.688851 0.681982 0.606058 0.695149 0.692479
          0.688654 0.70279 0.695269 0.692069 0.706222 0.69528
          0.682896 0.697081 0.690928 0.689053 0.712211 0.698262
          0.700507 0.708462 0.684526 0.714618 0.707117 0.678568
          0.683257 0.689683 0.68008 0.693149 0.68672 0.689929
          0.688596 0.694691 0.712236 0.708743 0.69212 0.695939
          0.616252 0.715961 0.708232 0.701338 0.702957 0.705164
          0.695271 0.697518 0.705971 0.717905 0.701663 0.700754
          0.703506 0.694892 0.708984 0.705106 0.687657 0.700951
          0.69748 0.692083 0.694435 0.691653 0.687445 0.690951
          0.695626 0.677323 0.686721 0.690831 0.697976 0.686545
          0.696486 0.685964 0.694436 0.616668 0.711305 0.71872
          0.699805 0.705362 0.687273 0.706076 0.697886 0.707279
          0.692121 0.704366 0.699065 0.693136 0.705516 0.699061
          0.701236 0.698748 0.704626 0.701018 0.689477 0.700105
          0.6968 0.679423 0.693107 0.693705 0.691348 0.686513
          0.69548 0.697827 0.692187 0.701402 0.694804 0.68648
          0.595898 0.687418 0.694282 0.698605 0.690892 0.688853
          0.693952 0.694776 0.687382 0.70857 0.699233 0.709727
          0.688951 0.694517 0.692165 0.701907 0.713677 0.694805
          0.712105 0.693012 0.716261 0.702836 0.705297 0.719174
          0.72505 0.707789 0.71601 0.703763 0.708884 0.705821
          0.692999 0.714571 0.712337 0.595455 0.69294 0.688814
          0.687478 0.685683 0.684134 0.702732 0.689804 0.68786
          0.693943 0.715557 0.697905 0.704751 0.700531 0.685611
          0.710291 0.706459 0.693343 0.710791 0.698394 0.712628
          0.716277 0.704879 0.693436 0.705555 0.692856 0.701163
          0.708668 0.705526 0.70656 0.720856 0.725905 0.703588
          0.628264 0.703769 0.67957 0.701606 0.702819 0.693059
          0.706129 0.687768 0.712636 0.699939 0.711143 0.694711
          0.685605 0.697235 0.717766 0.709005 0.713441 0.692627
          0.697401 0.692641 0.702691 0.705197 0.700631 0.697281
          0.698148 0.713843 0.705624 0.706476 0.710622 0.714828
          0.720286 0.707519 0.700495 0.608831 0.697093 0.685882
          0.695737 0.671219 0.686279 0.68682 0.705987 0.686127
          0.714866 0.698741 0.688932 0.699611 0.70786 0.690958
          0.700173 0.698395 0.691177 0.690096 0.713867 0.687197
          0.697376 0.690142 0.705463 0.701892 0.709423 0.689637
          0.708005 0.688455 0.692816 0.687776 0.698945 0.698669
          0.612566 0.691238 0.710305 0.675841 0.685091 0.692128
          0.698375 0.695166 0.699312 0.69033 0.700907 0.687908
          0.711089 0.695502 0.700146 0.697118 0.695941 0.696803
          0.694496 0.708201 0.699943 0.699976 0.685447 0.708636
          0.697895 0.688945 0.69555 0.683951 0.697247 0.684471
          0.70028 0.692268 0.686388 0.581874 0.677925 0.69506
          0.699139 0.695907 0.68921 0.692558 0.70644 0.68834
          0.692326 0.691663 0.692714 0.692769 0.689939 0.705192
          0.691408 0.701034 0.69467 0.689359 0.696805 0.70282
          0.693968 0.68674 0.702596 0.707335 0.708109 0.694351
          0.686473 0.695324 0.69596 0.68437 0.691441 0.694115
          0.60428 0.687452 0.704566 0.700567 0.697603 0.692924
          0.701109 0.706666 0.687157 0.70661 0.708918 0.685138
          0.701875 0.710314 0.696195 0.706621 0.703335 0.697772
          0.714309 0.690305 0.681876 0.695324 0.697386 0.685137
          0.701425 0.695145 0.672969 0.693888 0.698873 0.702248
          0.68425 0.69123 0.680617 0.587365 0.688291 0.697933
          0.689801 0.675979 0.699875 0.690528 0.698246 0.683241
          0.699395 0.683332 0.705654 0.71327 0.700875 0.696695
          0.69528 0.703326 0.717012 0.705279 0.695536 0.709788
          0.706399 0.720796 0.708913 0.711367 0.709795 0.725144
          0.726433 0.705696 0.69279 0.708857 0.708941 0.718849
          0.625127 0.707674 0.704285 0.70711 0.692035 0.707399
          0.717485 0.700541 0.702538 0.711335 0.698005 0.693799
          0.696901 0.712912 0.697805 0.703855 0.70166 0.705834
          0.701527 0.701303 0.70835 0.700288 0.707834 0.701281
          0.701655 0.690014 0.690968 0.695834 0.691833 0.689305
          0.687862 0.704022 0.679888 0.61772 0.701307 0.696443
          0.703869 0.697476 0.706127 0.69226 0.701471 0.699847
          0.690702 0.710026 0.699232 0.69803 0.68667 0.711733
          0.698243 0.704336 0.702258 0.712426 0.705503 0.688319
          0.69555 0.685716 0.692599 0.691437 0.688924 0.684879
          0.688475 0.695013 0.700378 0.721554 0.695141 0.699269
          0.608668 0.70814 0.69462 0.706214 0.712653 0.702151
          0.707861 0.687767 0.7009 0.708522 0.697079 0.685184
          0.714259 0.696978 0.703216 0.714189 0.696436 0.698567
          0.699441 0.709646 0.691843 0.702844 0.69255 0.687637
          0.691424 0.696017 0.686671 0.691781 0.687188 0.694746
          0.687932 0.690895 0.695975 0.61534 0.724507 0.696662
          0.699798 0.692479 0.701621 0.698221 0.701829 0.698781
          0.699247 0.706472 0.701399 0.70986 0.702329 0.705883
          0.695811 0.722635 0.698859 0.690263 0.701718 0.72546
          0.707002 0.695375 0.716598 0.707848 0.709269 0.702524
          0.714573 0.711191 0.700201 0.705509 0.698566 0.718124
          0.617109 0.710903 0.702081 0.705043 0.700759 0.696964
          0.697103 0.702032 0.713054 0.696307 0.712406 0.696568
          0.687989 0.712417 0.699851 0.685394 0.702856 0.694211
          0.713466 0.700221 0.687973 0.695623 0.696583 0.686362
          0.694861 0.694846 0.694091 0.678074 0.684213 0.698811
          0.701062 0.69361 0.672277 0.612501 0.701996 0.702842
          0.707084 0.701168 0.696673 0.702638 0.704677 0.696547
          0.69439 0.701142 0.709993 0.686451 0.702973 0.702699
          0.699415 0.703423 0.687294 0.694535 0.702205 0.712031
          0.710495 0.71095 0.701597 0.712506 0.715259 0.70203
          0.716779 0.712075 0.712969 0.712429 0.713703 0.71294
          0.597719 0.677325 0.717622 0.687446 0.695236 0.68657
          0.688132 0.697314 0.698408 0.70295 0.68328 0.683345
          0.710561 0.695894 0.715804 0.684216 0.699723 0.702058
          0.69285 0.691058 0.724237 0.705915 0.708605 0.718959
          0.709807 0.7094 0.727832 0.723623 0.718255 0.711462
          0.703377 0.711664 0.722622 0.602184 0.684719 0.685872
          0.678927 0.690774 0.696979 0.688635 0.704043 0.691323
          0.70476 0.70112 0.68832 0.707476 0.68457 0.721069
          0.692621 0.712505 0.688977 0.698637 0.702422 0.714727
          0.716229 0.710865 0.705111 0.709427 0.719587 0.713768
          0.705243 0.713562 0.703709 0.7064 0.709023 0.709947
          0.597211 0.698463 0.683035 0.687004 0.695779 0.681889
          0.696197 0.695045 0.704895 0.697159 0.702505 0.704563
          0.682572 0.704633 0.686654 0.696797 0.699511 0.691555
          0.689815 0.697152 0.701776 0.717514 0.707273 0.700656
          0.704775 0.699738 0.707789 0.699704 0.712955 0.709725
          0.708514 0.718823 0.715343 0.636489 0.704846 0.689631
          0.706028 0.704971 0.695477 0.692298 0.705839 0.712365
          0.699125 0.703756 0.702542 0.700561 0.704915 0.70362
          0.710296 0.698892 0.702809 0.695968 0.697919 0.701148
          0.708417 0.717503 0.699331 0.699746 0.704621 0.715531
          0.711358 0.70611 0.710142 0.72315 0.710285 0.711786
          0.601656 0.672053 0.708413 0.703853 0.705097 0.687169
          0.679581 0.682338 0.683602 0.69651 0.708749 0.681701
          0.70519 0.697645 0.715941 0.691025 0.692808 0.715234
          0.695391 0.69678 0.706079 0.69014 0.702238 0.692043
          0.701726 0.6989 0.683883 0.683282 0.688681 0.691398
          0.699025 0.690711 0.687516 0.621636 0.696116 0.699947
          0.702656 0.691675 0.703694 0.712769 0.701563 0.698351
          0.699385 0.704134 0.694164 0.69173 0.699313 0.713252
          0.69242 0.692592 0.694945 0.697382 0.695143 0.701096
          0.702508 0.682096 0.697123 0.692852 0.695898 0.710149
          0.704672 0.69498 0.700938 0.696282 0.685906 0.689069
          0.595972 0.685826 0.67999 0.711023 0.690626 0.692367
          0.701461 0.699319 0.700238 0.703117 0.683094 0.681571
          0.702553 0.698531 0.713468 0.694768 0.696958 0.699812
          0.696009 0.698229 0.698597 0.687176 0.70941 0.706701
          0.696877 0.692554 0.689197 0.695824 0.7001 0.690296
          0.681798 0.702111 0.706776 0.592991 0.695711 0.697763
          0.699166 0.683708 0.681303 0.685615 0.688127 0.694185
          0.699036 0.715916 0.682474 0.707276 0.702365 0.704747
          0.686366 0.698626 0.698449 0.694788 0.698379 0.717393
          0.707761 0.713577 0.718037 0.725829 0.711463 0.712657
          0.719131 0.706282 0.699125 0.698263 0.708258 0.70627
          0.599836 0.68693 0.700037 0.689876 0.683203 0.685417
          0.68631 0.710274 0.687435 0.704258 0.695546 0.695553
          0.70534 0.696763 0.696346 0.691833 0.702425 0.706496
          0.706347 0.699586 0.71061 0.707627 0.695625 0.710311
          0.686107 0.68756 0.689988 0.698514 0.688201 0.705291
          0.697835 0.678329 0.70399 0.609546 0.692763 0.685664
          0.692741 0.691794 0.692867 0.692103 0.676626 0.700589
          0.698691 0.710648 0.706206 0.696502 0.710526 0.711902
          0.712451 0.706 0.693811 0.688623 0.712666 0.698864
          0.688831 0.709458 0.678331 0.695535 0.687533 0.686897
          0.686219 0.696099 0.686056 0.710621 0.694385 0.681591
          0.621293 0.697649 0.692696 0.701012 0.708228 0.69836
          0.702814 0.679603 0.714146 0.688849 0.694848 0.695091
          0.68692 0.705944 0.696379 0.721604 0.705371 0.679763
          0.70694 0.697733 0.699927 0.709135 0.690403 0.714959
          0.718466 0.714786 0.703373 0.691224 0.712014 0.70499
          0.724921 0.720285 0.721795 0.622497 0.707169 0.691937
          0.711606 0.693228 0.70106 0.69222 0.699551 0.712342
          0.705248 0.707426 0.699938 0.691481 0.702719 0.689682
          0.704999 0.711479 0.690493 0.697122 0.693456 0.713242
          0.692653 0.697999 0.700692 0.705479 0.698644 0.705075
          0.706716 0.722274 0.710995 0.731035 0.710033 0.708007
          0.593827 0.680398 0.706944 0.687701 0.680656 0.687233
          0.696858 0.703009 0.686334 0.704305 0.681275 0.696706
          0.706288 0.69017 0.705419 0.700437 0.700249 0.70316
          0.691512 0.704347 0.698545 0.703941 0.69236 0.705449
          0.703047 0.695368 0.709353 0.70862 0.700363 0.698367
          0.698948 0.694812 0.7065 0.617674 0.707524 0.69935
          0.694538 0.697006 0.709309 0.690468 0.704129 0.691338
          0.705271 0.706352 0.703494 0.698562 0.700883 0.699966
          0.692658 0.704325 0.692467 0.700945 0.687584 0.691691
          0.704538 0.706789 0.703685 0.710506 0.708842 0.700524
          0.711338 0.711975 0.707585 0.710083 0.716496 0.707945
          0.601561 0.686573 0.689476 0.688141 0.684081 0.678252
          0.68456 0.702014 0.695236 0.693208 0.703407 0.700063
          0.703563 0.683976 0.694762 0.710734 0.700089 0.69358
          0.692667 0.707161 0.703799 0.684004 0.686666 0.688689
          0.687106 0.676654 0.687212 0.696925 0.680896 0.693313
          0.691512 0.686086 0.698913 0.611699 0.711212 0.700616
          0.68972 0.721735 0.693391 0.706281 0.701738 0.701078
          0.69049 0.694862 0.711071 0.694522 0.694931 0.696926
          0.705808 0.688067 0.70444 0.702888 0.694578 0.683103
          0.696718 0.679596 0.695523 0.691319 0.693505 0.701188
          0.683075 0.700633 0.691754 0.687893 0.693177 0.694129
          0.626595 0.701406 0.702792 0.689953 0.712332 0.687133
          0.700553 0.702003 0.687159 0.695044 0.698715 0.710097
          0.695324 0.705255 0.707708 0.709491 0.701735 0.703674
          0.695295 0.693827 0.694762 0.699836 0.679083 0.686788
          0.694182 0.705461 0.68406 0.679717 0.694363 0.682242
          0.684099 0.70894 0.684305 0.629302 0.70892 0.700944
          0.697829 0.715696 0.681048 0.707839 0.711741 0.707167
          0.699097 0.70305 0.697312 0.695755 0.697937 0.688404
          0.69217 0.70516 0.688561 0.705866 0.701033 0.69078
          0.685481 0.676168 0.693554 0.69363 0.696845 0.680367
          0.701783 0.702944 0.699511 0.704498 0.680613 0.682136
          0.596657 0.675431 0.700744 0.693509 0.688258 0.678629
          0.692074 0.686296 0.681923 0.707942 0.696526 0.674635
          0.718992 0.687254 0.69479 0.694304 0.708978 0.709332
          0.699309 0.694694 0.714895 0.711619 0.716768 0.71813
          0.709885 0.718493 0.69903 0.722871 0.711678 0.70399
          0.707906 0.71048 0.710294 0.594346 0.67508 0.694911
          0.682491 0.683492 0.68678 0.69585 0.713246 0.697067
          0.713374 0.694239 0.69698 0.696236 0.703654 0.693385
          0.698781 0.702277 0.714026 0.690949 0.696697 0.683505
          0.693736 0.691953 0.69659 0.696176 0.688385 0.690803
          0.686628 0.687693 0.688528 0.684985 0.696773 0.68631
          0.602524 0.693322 0.705531 0.692882 0.699337 0.681624
          0.685183 0.691494 0.689432 0.697365 0.689498 0.703485
          0.69937 0.702605 0.697356 0.705742 0.696975 0.694222
          0.698049 0.702234 0.710379 0.723573 0.708388 0.7176
          0.70432 0.709263 0.717897 0.701951 0.712555 0.71453
          0.731598 0.704991 0.704022 0.598373 0.695885 0.706242
          0.691985 0.697617 0.693335 0.703741 0.695936 0.689435
          0.711005 0.686462 0.691136 0.706921 0.696924 0.700996
          0.689883 0.70586 0.704782 0.698577 0.706086 0.700987
          0.709418 0.702839 0.702644 0.706367 0.691073 0.688767
          0.694584 0.692762 0.68143 0.680785 0.691093 0.687724
          0.614376 0.690615 0.705049 0.708344 0.693619 0.704563
          0.710867 0.700551 0.697408 0.696704 0.694897 0.692719
          0.687864 0.700326 0.714203 0.695384 0.693937 0.706284
          0.701864 0.697466 0.697124 0.703783 0.705706 0.69835
          0.690565 0.710452 0.694698 0.705803 0.68853 0.699389
          0.699621 0.694579 0.680497 0.614917 0.693054 0.703358
          0.708384 0.691215 0.704154 0.695852 0.708124 0.685189
          0.694819 0.699343 0.689012 0.703754 0.713911 0.698031
          0.6941 0.694676 0.691472 0.696068 0.696124 0.706667
          0.681589 0.705016 0.690291 0.710441 0.711355 0.705084
          0.696832 0.708377 0.699193 0.686232 0.688544 0.693866
          0.624149 0.695553 0.693451 0.698141 0.681885 0.695119
          0.685967 0.696573 0.6916 0.682702 0.69474 0.695795
          0.708835 0.698235 0.692169 0.700811 0.702622 0.701886
          0.705597 0.696278 0.696978 0.70399 0.707802 0.700265
          0.703995 0.694692 0.688602 0.719481 0.71972 0.70246
          0.703247 0.696987 0.703929 0.61818 0.690181 0.678895
          0.691456 0.69932 0.69004 0.695772 0.689281 0.712924
          0.681982 0.694685 0.69287 0.687411 0.706514 0.699429
          0.692226 0.697361 0.701551 0.707803 0.714014 0.684014
          0.6871 0.699049 0.678945 0.689711 0.6999 0.685517
          0.688411 0.690888 0.676721 0.708009 0.692195 0.687496
          0.623088 0.713279 0.703051 0.702044 0.708057 0.701255
          0.698017 0.696571 0.700451 0.700495 0.696367 0.700966
          0.682513 0.705554 0.690137 0.703753 0.693387 0.69101
          0.703355 0.714088 0.676799 0.674996 0.686271 0.690927
          0.69659 0.691013 0.68644 0.691015 0.676012 0.697972
          0.694204 0.71024 0.686036 0.611441 0.697407 0.689572
          0.706687 0.686311 0.695072 0.695305 0.697713 0.69206
          0.696733 0.692531 0.701364 0.707107 0.69127 0.698485
          0.704686 0.69103 0.695549 0.696433 0.701907 0.692678
          0.710693 0.697175 0.700083 0.715415 0.699422 0.701398
          0.702723 0.702378 0.6902 0.685455 0.694529 0.697448
          0.633238 0.698564 0.710327 0.691508 0.697735 0.69722
          0.700767 0.700304 0.704051 0.698243 0.695236 0.697043
          0.700342 0.703433 0.703203 0.690148 0.703064 0.704782
          0.681851 0.694126 0.705945 0.706975 0.71479 0.715212
          0.716499 0.703648 0.700251 0.705957 0.71802 0.700562
          0.707424 0.710117 0.708638 0.595723 0.686289 0.689362
          0.68903 0.68656 0.682298 0.700436 0.687798 0.699462
          0.698605 0.69416 0.695004 0.701814 0.694199 0.69054
          0.697295 0.702611 0.713738 0.70004 0.690916 0.716514
          0.717651 0.719299 0.715865 0.711409 0.701368 0.69876
          0.710732 0.697305 0.706094 0.71515 0.727669 0.707466
          0.602267 0.682324 0.694654 0.670386 0.685596 0.699959
          0.698478 0.683151 0.699302 0.685065 0.696455 0.69459
          0.704043 0.707982 0.702208 0.687311 0.714301 0.692332
          0.698994 0.685217 0.706948 0.714979 0.706497 0.71344
          0.71015 0.711866 0.713474 0.709143 0.706181 0.716946
          0.701324 0.725582 0.718256 0.615269 0.714108 0.698764
          0.698948 0.700683 0.694913 0.716368 0.717843 0.693119
          0.695669 0.702304 0.691397 0.701611 0.702523 0.699958
          0.689386 0.712367 0.707812 0.696004 0.700891 0.706091
          0.700863 0.709629 0.706657 0.703831 0.706034 0.706848
          0.710884 0.707803 0.704677 0.698132 0.721482 0.708822
          0.618506 0.685422 0.713128 0.692519 0.704915 0.694654
          0.706844 0.7041 0.719196 0.683769 0.701234 0.709339
          0.710111 0.688744 0.703254 0.714554 0.698809 0.698333
          0.70472 0.687694 0.712549 0.713043 0.707881 0.705138
          0.711814 0.699297 0.714897 0.713131 0.699665 0.697684
          0.698814 0.695365 0.70522 0.608095 0.682251 0.675044
          0.692467 0.699359 0.686344 0.677408 0.715286 0.693131
          0.712848 0.684968 0.706212 0.701282 0.703745 0.70129
          0.691674 0.688819 0.707583 0.698675 0.713195 0.712707
          0.71284 0.71517 0.699221 0.703722 0.716655 0.704241
          0.696634 0.70512 0.71843 0.714284 0.70529 0.707733
          0.618886 0.690473 0.710407 0.696694 0.704765 0.699372
          0.706336 0.70753 0.683344 0.699847 0.699702 0.695144
          0.70748 0.686888 0.703191 0.711193 0.703223 0.707414
          0.695515 0.700194 0.722403 0.717501 0.708077 0.700882
          0.709261 0.703161 0.703509 0.708008 0.700491 0.700592
          0.704712 0.710027 0.72026 0.59395 0.677203 0.695578
          0.687669 0.686211 0.698845 0.679513 0.687127 0.697953
          0.704599 0.702793 0.702286 0.6957 0.703011 0.692459
          0.700156 0.70764 0.696646 0.712242 0.689032 0.718591
          0.722897 0.700076 0.69567 0.709571 0.726323 0.711238
          0.71214 0.707509 0.709381 0.693948 0.704523 0.710012
          0.620724 0.721511 0.689777 0.701107 0.700889 0.687533
          0.703225 0.696299 0.693554 0.699183 0.721683 0.699317
          0.691651 0.705729 0.695804 0.713287 0.702706 0.69152
          0.698904 0.696422 0.706195 0.70613 0.705842 0.70278
          0.72286 0.711052 0.700211 0.706592 0.694631 0.709211
          0.716047 0.70882 0.722841 0.602029 0.693374 0.694215
          0.70275 0.689545 0.691653 0.691344 0.703686 0.694438
          0.695787 0.69547 0.689744 0.708098 0.685862 0.707302
          0.700434 0.700258 0.70924 0.698386 0.697523 0.695537
          0.702941 0.700221 0.708353 0.7113 0.701967 0.70443
          0.710815 0.697172 0.693901 0.695234 0.701939 0.701715
          0.617882 0.696537 0.691201 0.701487 0.694466 0.695722
          0.706152 0.707549 0.702043 0.707783 0.702575 0.689523
          0.708114 0.700081 0.700802 0.712952 0.696715 0.70629
          0.69508 0.699762 0.69735 0.706686 0.708997 0.702447
          0.692194 0.693207 0.683048 0.699489 0.69015 0.696366
          0.688112 0.695225 0.692427 0.633371 0.704297 0.696833
          0.704056 0.695666 0.694452 0.696184 0.698523 0.706997
          0.698084 0.697772 0.71162 0.68429 0.710656 0.704688
          0.707529 0.699811 0.686611 0.70545 0.705496 0.704415
          0.697387 0.690187 0.686089 0.69498 0.706113 0.690511
          0.701999 0.692411 0.701687 0.708988 0.696009 0.6967
          0.622787 0.705678 0.712528 0.708053 0.69684 0.693021
          0.703535 0.697425 0.70977 0.70089 0.685904 0.706039
          0.689259 0.712722 0.693528 0.712629 0.706842 0.686117
          0.709895 0.715015 0.69218 0.688186 0.710556 0.690663
          0.707586 0.698153 0.700136 0.708368 0.683789 0.702032