<?xml version="1.0"?>
<VTKFile type="PolyData" version="0.1" byte_order="LittleEndian" header_type="UInt32" compressor="vtkZLibDataCompressor">
  <PolyData>
    <Piece NumberOfPoints="7920" NumberOfVerts="0" NumberOfLines="0" NumberOfStrips="0" NumberOfPolys="0">
      <PointData Scalars="Calcium Concentration">
        <DataArray type="Float32" Name="Calcium Concentration" format="ascii" RangeMin="0.6057479977607727" RangeMax="0.74760901927948">
          0.641866 0.69891 0.704043 0.699759 0.695355 0.700324
          0.700896 0.715183 0.705027 0.693724 0.70674 0.697193
          0.697542 0.702195 0.700827 0.701339 0.697021 0.695984
          0.690507 0.721457 0.691177 0.683565 0.689027 0.69469
          0.694413 0.693755 0.70541 0.689625 0.683221 0.693999
          0.71402 0.696787 0.687247 0.656933 0.690995 0.702059
          0.702693 0.694156 0.69041 0.693182 0.699358 0.689948
          0.699393 0.692576 0.698246 0.699657 0.698202 0.714246
          0.6839 0.703541 0.704782 0.687791 0.701049 0.688761
          0.69369 0.668954 0.682693 0.688145 0.68895 0.692337
          0.683558 0.688462 0.705717 0.687731 0.68804 0.695311
          0.6254 0.686921 0.695917 0.684983 0.688741 0.692034
          0.688703 0.691237 0.707708 0.695569 0.701663 0.691643
          0.686343 0.695919 0.71376 0.710152 0.710565 0.705671
          0.717427 0.70823 0.717845 0.713971 0.71769 0.698617
          0.718713 0.706283 0.707716 0.711321 0.70498 0.702538
          0.712881 0.710784 0.70368 0.638398 0.700887 0.699143
          0.707013 0.701222 0.699219 0.705716 0.700459 0.70457
          0.696264 0.696077 0.698723 0.707558 0.689609 0.707269
          0.692354 0.707356 0.707589 0.70668 0.707744 0.688237
          0.690486 0.68758 0.696601 0.690246 0.711752 0.705499
          0.691975 0.702269 0.692654 0.700243 0.694619 0.693441
          0.619757 0.686522 0.682564 0.696337 0.679013 0.690009
          0.685589 0.703321 0.694117 0.691856 0.710074 0.702517
          0.707623 0.700331 0.704625 0.686236 0.69342 0.702428
          0.694816 0.694406 0.695352 0.702952 0.684408 0.690636
          0.700031 0.692192 0.684076 0.698204 0.680402 0.701141
          0.689856 0.705719 0.695058 0.644183 0.694567 0.697576
          0.706197 0.706009 0.692363 0.696219 0.693373 0.716997
          0.703243 0.704024 0.698656 0.699149 0.691567 0.709548
          0.699894 0.697013 0.689817 0.712137 0.685492 0.704277
          0.697502 0.69938 0.701432 0.715778 0.696929 0.708751
          0.695967 0.697385 0.716726 0.721001 0.708421 0.709698
          0.635854 0.677702 0.678668 0.685996 0.697927 0.699197
          0.688094 0.698406 0.719118 0.705063 0.691237 0.702325
          0.708025 0.704834 0.691866 0.708755 0.683704 0.698491
          0.696095 0.695022 0.705262 0.708597 0.700389 0.699561
          0.693658 0.717852 0.707402 0.72311 0.725623 0.706866
          0.716339 0.713468 0.712305 0.634553 0.675881 0.697294
          0.681119 0.691318 0.689793 0.67868 0.677924 0.707552
          0.706874 0.693945 0.695915 0.695327 0.688232 0.705387
          0.689772 0.704855 0.695762 0.694385 0.69912 0.686013
          0.679442 0.68146 0.693639 0.702255 0.692773 0.686637
          0.691214 0.691691 0.683156 0.702871 0.684789 0.690004
          0.632643 0.693819 0.691003 0.686922 0.685191 0.687176
          0.684428 0.698962 0.708513 0.689908 0.700717 0.698033
          0.698333 0.69045 0.696668 0.693026 0.70694 0.701213
          0.69686 0.698106 0.698364 0.702848 0.715315 0.697876
          0.706602 0.72092 0.711889 0.705003 0.704629 0.714187
          0.707288 0.714203 0.71617 0.649115 0.698073 0.700182
          0.716186 0.707072 0.688377 0.703029 0.695726 0.694402
          0.69277 0.710223 0.688879 0.711218 0.6925 0.704568
          0.695171 0.700453 0.696664 0.680283 0.703323 0.7016
          0.689028 0.697554 0.701495 0.715636 0.709806 0.703177
          0.702347 0.69961 0.716082 0.715297 0.708256 0.697738
          0.65165 0.700695 0.700431 0.700879 0.693897 0.694364
          0.707137 0.695964 0.705317 0.69565 0.694666 0.70017
          0.708172 0.704849 0.702844 0.713833 0.691871 0.698246
          0.692021 0.699299 0.709341 0.708156 0.719429 0.708696
          0.693905 0.713974 0.706755 0.704247 0.703596 0.719763
          0.702481 0.706817 0.697289 0.631439 0.689044 0.693119
          0.686028 0.679452 0.684888 0.682492 0.70274 0.696406
          0.702552 0.705424 0.685531 0.698655 0.70478 0.70609
          0.685962 0.696853 0.701265 0.69073 0.706734 0.688744
          0.699174 0.687995 0.67758 0.680636 0.703755 0.685684
          0.687557 0.690096 0.693123 0.691914 0.693665 0.704482
          0.64881 0.697946 0.693546 0.711258 0.685958 0.704642
          0.700281 0.693235 0.698408 0.704185 0.695938 0.699942
          0.710604 0.695329 0.68909 0.70079 0.697624 0.697746
          0.684289 0.707346 0.688552 0.700896 0.687683 0.693628
          0.704634 0.700497 0.696055 0.693273 0.686646 0.694596
          0.695277 0.707637 0.701258 0.653242 0.700404 0.70048
          0.713602 0.698067 0.699306 0.689184 0.712895 0.706134
          0.701103 0.690521 0.697479 0.701421 0.697953 0.71503
          0.691356 0.689091 0.70306 0.701284 0.688811 0.688507
          0.695107 0.683064 0.676452 0.690578 0.689392 0.699772
          0.692395 0.690219 0.680964 0.690227 0.685438 0.696952
          0.622544 0.688638 0.694895 0.693558 0.68114 0.686952
          0.694957 0.699852 0.682628 0.698812 0.711074 0.694759
          0.694803 0.703327 0.705617 0.708995 0.709716 0.705215
          0.707592 0.698491 0.699117 0.706551 0.701114 0.709639
          0.719773 0.708856 0.720658 0.715099 0.718294 0.716817
          0.702572 0.69969 0.706335 0.648539 0.705479 0.693637
          0.716308 0.700715 0.705079 0.701422 0.708993 0.706388
          0.699974 0.708615 0.70392 0.700447 0.690206 0.700036
          0.70504 0.693662 0.705756 0.69643 0.700127 0.684602
          0.682194 0.693609 0.692908 0.68021 0.695813 0.68869
          0.689551 0.693834 0.683213 0.699648 0.682644 0.685979
          0.635285 0.687282 0.683111 0.680276 0.692091 0.69004
          0.691062 0.699731 0.697542 0.702183 0.695416 0.693096
          0.703893 0.681531 0.69114 0.702459 0.694855 0.711444
          0.696232 0.693442 0.690396 0.682408 0.687479 0.690751
          0.694864 0.68518 0.697169 0.703358 0.703381 0.703682
          0.697331 0.695168 0.695028 0.64242 0.689443 0.672999
          0.685255 0.706018 0.683628 0.688488 0.69161 0.707887
          0.705882 0.699372 0.695814 0.695848 0.707388 0.685902
          0.699802 0.693882 0.698575 0.7027 0.69499 0.707012
          0.711041 0.704861 0.709289 0.71919 0.718192 0.699777
          0.689981 0.700315 0.707052 0.718233 0.71598 0.714562
          0.617973 0.69434 0.68185 0.68432 0.695916 0.677512
          0.693407 0.706348 0.695463 0.700296 0.707226 0.698875
          0.698553 0.709353 0.705116 0.697931 0.702967 0.692395
          0.691242 0.706964 0.684131 0.698942 0.679725 0.68608
          0.698194 0.689018 0.688056 0.688761 0.701759 0.69343
          0.694444 0.696168 0.708818 0.638729 0.703448 0.699967
          0.693388 0.704056 0.699598 0.69932 0.696593 0.704635
          0.701354 0.700604 0.711174 0.695137 0.704535 0.701974
          0.707228 0.714623 0.698308 0.705801 0.691773 0.702135
          0.682514 0.687736 0.692644 0.688556 0.692103 0.68399
          0.703374 0.694959 0.683362 0.691672 0.684436 0.688687
          0.646207 0.701146 0.705468 0.69844 0.703875 0.684676
          0.697246 0.705429 0.709177 0.692754 0.699223 0.701785
          0.7015 0.699328 0.68933 0.708316 0.701928 0.707944
          0.700164 0.703442 0.691832 0.685262 0.675899 0.690593
          0.69188 0.697681 0.68994 0.69204 0.693876 0.704872
          0.699669 0.690257 0.693087 0.642976 0.711141 0.68703
          0.694978 0.688389 0.698244 0.719849 0.69186 0.710968
          0.701307 0.694239 0.706854 0.692243 0.713777 0.705727
          0.6886 0.69392 0.691911 0.706671 0.693694 0.712588
          0.704439 0.705272 0.701874 0.702135 0.718788 0.700681
          0.710866 0.715802 0.718466 0.707897 0.710411 0.696715
          0.645215 0.698399 0.702871 0.712773 0.699556 0.686926
          0.690801 0.706216 0.704912 0.689163 0.698988 0.694479
          0.716033 0.701769 0.677558 0.719578 0.696301 0.691687
          0.691092 0.694618 0.719698 0.695346 0.704411 0.702292
          0.708601 0.713881 0.710636 0.705327 0.713228 0.726182
          0.725705 0.712297 0.71137 0.647423 0.704895 0.693834
          0.702703 0.690619 0.698343 0.70365 0.701493 0.703381
          0.698269 0.703105 0.700217 0.724497 0.694464 0.70908
          0.708801 0.684053 0.69932 0.691448 0.693847 0.711702
          0.719532 0.716401 0.709217 0.716643 0.716427 0.723829
          0.709382 0.701395 0.708188 0.72628 0.71442 0.70171
          0.638151 0.693081 0.692005 0.704851 0.708341 0.707012
          0.70138 0.713574 0.712378 0.700465 0.697378 0.68925
          0.703904 0.694573 0.703791 0.699976 0.70577 0.697515
          0.69655 0.702436 0.685958 0.68621 0.692578 0.677848
          0.690284 0.696093 0.692611 0.690684 0.689008 0.697219
          0.68732 0.694255 0.688944 0.651573 0.696856 0.69387
          0.686713 0.706287 0.693268 0.72043 0.693029 0.708812
          0.701183 0.710588 0.700137 0.709152 0.688321 0.710446
          0.69738 0.695974 0.702467 0.706346 0.704175 0.69077
          0.691909 0.687002 0.686021 0.684687 0.700216 0.692784
          0.695877 0.6937 0.695482 0.683581 0.690625 0.702694
          0.652696 0.701296 0.689917 0.706535 0.706656 0.69286
          0.696054 0.694755 0.703743 0.690867 0.694733 0.703909
          0.683418 0.705523 0.693818 0.708114 0.703932 0.685056
          0.70177 0.702877 0.696801 0.686558 0.68404 0.684248
          0.683428 0.6947 0.686373 0.680531 0.679049 0.696976
          0.691983 0.68825 0.689192 0.642609 0.691719 0.692505
          0.691139 0.694236 0.68921 0.692869 0.700984 0.711728
          0.69053 0.703049 0.690101 0.691097 0.705859 0.697881
          0.698907 0.70887 0.684116 0.711145 0.707768 0.685393
          0.685428 0.691439 0.684102 0.689014 0.695695 0.692736
          0.691756 0.693429 0.719041 0.701596 0.686403 0.690934
          0.641878 0.709498 0.699976 0.698193 0.69976 0.697666
          0.696682 0.701522 0.709982 0.701901 0.693317 0.703865
          0.701972 0.69525 0.699371 0.701337 0.691356 0.692889
          0.695456 0.697432 0.691813 0.680854 0.676517 0.695896
          0.70076 0.686482 0.677714 0.692368 0.70052 0.68789
          0.695157 0.686463 0.685276 0.644616 0.704099 0.71065
          0.702313 0.700416 0.699587 0.696856 0.703034 0.712485
          0.688815 0.698726 0.705497 0.702596 0.687524 0.698489
          0.706762 0.705496 0.711841 0.705441 0.689337 0.692848
          0.696702 0.681834 0.698091 0.699846 0.688334 0.698965
          0.699729 0.697987 0.694756 0.696631 0.683378 0.685566
          0.627906 0.681054 0.683783 0.698669 0.686404 0.693305
          0.68644 0.700117 0.684222 0.70721 0.701518 0.704714
          0.69851 0.703308 0.701209 0.690183 0.711426 0.704156
          0.711114 0.694281 0.710223 0.699333 0.704809 0.717083
          0.715413 0.710356 0.710675 0.70463 0.710555 0.702211
          0.697278 0.703535 0.718945 0.631143 0.684962 0.692814
          0.67919 0.689922 0.691365 0.695759 0.686454 0.69074
          0.689377 0.702911 0.694903 0.702979 0.694282 0.687648
          0.705206 0.709063 0.689072 0.696546 0.695678 0.715175
          0.71957 0.699403 0.69314 0.702587 0.688705 0.705119
          0.705915 0.703317 0.718837 0.720538 0.71257 0.695073
          0.653016 0.702574 0.690519 0.695942 0.704258 0.704617
          0.706443 0.683457 0.711799 0.70128 0.704512 0.701791
          0.688473 0.7065 0.707043 0.702457 0.717036 0.696263
          0.69905 0.698702 0.697848 0.701927 0.716609 0.693757
          0.698619 0.708843 0.707071 0.704525 0.713435 0.711808
          0.724568 0.706497 0.700323 0.636768 0.694997 0.689375
          0.693235 0.68059 0.691933 0.686246 0.70665 0.686179
          0.710858 0.708909 0.685108 0.703726 0.704168 0.69643
          0.701068 0.701373 0.694415 0.681137 0.718133 0.691662
          0.695431 0.697734 0.705621 0.692489 0.716559 0.689594
          0.695987 0.696322 0.699266 0.680112 0.701555 0.696381
          0.643362 0.697881 0.699729 0.678852 0.677892 0.695387
          0.69218 0.694441 0.707374 0.697406 0.70288 0.69406
          0.711042 0.692494 0.691079 0.693984 0.688514 0.694478
          0.698936 0.713171 0.705256 0.695121 0.685109 0.694614
          0.699762 0.687827 0.696117 0.684379 0.706095 0.682549
          0.697873 0.688142 0.685203 0.610392 0.678606 0.70009
          0.699446 0.700421 0.686727 0.692131 0.702242 0.688343
          0.687414 0.689925 0.690696 0.704285 0.701207 0.706359
          0.692323 0.700136 0.701556 0.692358 0.700114 0.706739
          0.700379 0.692659 0.705727 0.711273 0.701828 0.707155
          0.685381 0.702253 0.696327 0.683433 0.69039 0.697174
          0.626471 0.689921 0.703683 0.701608 0.697681 0.700263
          0.701178 0.701242 0.694608 0.703958 0.712653 0.68872
          0.707573 0.707655 0.695805 0.698564 0.694499 0.697909
          0.705089 0.701229 0.684057 0.692091 0.697113 0.683858
          0.705081 0.687081 0.67515 0.693123 0.69817 0.701303
          0.681679 0.686162 0.683494 0.605997 0.682803 0.692404
          0.696875 0.685973 0.696795 0.693372 0.708641 0.6924
          0.692937 0.678364 0.704348 0.706966 0.707646 0.708033
          0.690802 0.702166 0.701456 0.702927 0.692776 0.717767
          0.697846 0.710601 0.710757 0.716556 0.712888 0.715791
          0.719154 0.711538 0.705451 0.714247 0.707332 0.717552
          0.652164 0.703126 0.704827 0.702791 0.686561 0.707657
          0.70914 0.698809 0.700619 0.710413 0.710463 0.690824
          0.689965 0.704256 0.694588 0.708166 0.70033 0.703384
          0.705828 0.705565 0.697673 0.692113 0.706612 0.703579
          0.70358 0.695004 0.684473 0.694248 0.690468 0.695665
          0.678825 0.709839 0.68148 0.643508 0.701667 0.705167
          0.698907 0.703467 0.703926 0.6996 0.702772 0.699732
          0.699433 0.706486 0.704655 0.700457 0.686154 0.713088
          0.699568 0.695637 0.696836 0.709412 0.711787 0.695878
          0.68996 0.690206 0.693719 0.694656 0.693461 0.688125
          0.690536 0.684368 0.711121 0.716659 0.692509 0.689446
          0.633276 0.708561 0.695272 0.698411 0.703336 0.702268
          0.702506 0.702726 0.707661 0.705951 0.692862 0.692395
          0.712226 0.703137 0.704666 0.707195 0.698027 0.707394
          0.690656 0.702066 0.691101 0.695623 0.69956 0.699391
          0.689469 0.702454 0.682637 0.700152 0.693779 0.683568
          0.682486 0.690555 0.691422 0.643425 0.709937 0.692777
          0.704084 0.699006 0.701889 0.704677 0.701702 0.708093
          0.697898 0.709245 0.703468 0.711837 0.694895 0.713379
          0.703341 0.722151 0.687869 0.686422 0.698627 0.718713
          0.711394 0.68757 0.715863 0.711893 0.700667 0.708462
          0.714886 0.702053 0.71433 0.709874 0.695383 0.716876
          0.6409 0.705077 0.698694 0.710266 0.702292 0.699508
          0.684646 0.706579 0.704965 0.716576 0.711838 0.698127
          0.683856 0.709125 0.693357 0.69513 0.704373 0.693536
          0.702835 0.692766 0.694381 0.690417 0.696397 0.687574
          0.69872 0.689419 0.683178 0.688397 0.686603 0.696401
          0.699248 0.692135 0.665119 0.636236 0.690472 0.702191
          0.702691 0.706031 0.699393 0.701685 0.702489 0.70565
          0.69041 0.703106 0.701334 0.703165 0.694643 0.706678
          0.702501 0.701262 0.701215 0.689542 0.69339 0.711373
          0.713459 0.707098 0.700165 0.715351 0.713234 0.701071
          0.709031 0.712582 0.707932 0.711859 0.70769 0.706681
          0.621128 0.679764 0.709967 0.692686 0.688258 0.689334
          0.683677 0.694093 0.699601 0.692843 0.6836 0.68836
          0.707566 0.701071 0.7006 0.680827 0.698092 0.697575
          0.692321 0.696027 0.713313 0.708589 0.70961 0.720199
          0.711693 0.717866 0.725858 0.721447 0.718931 0.700526
          0.702101 0.709412 0.711389 0.620312 0.68437 0.689274
          0.682389 0.692817 0.694398 0.69239 0.703424 0.689739
          0.709222 0.702884 0.680923 0.706146 0.691269 0.719275
          0.689156 0.706667 0.683946 0.705085 0.708039 0.718109
          0.706147 0.714319 0.69781 0.701537 0.719663 0.708686
          0.699923 0.708363 0.712746 0.698985 0.714803 0.707705
          0.617978 0.693237 0.679507 0.685105 0.69276 0.677241
          0.698181 0.706601 0.710059 0.705081 0.696225 0.695446
          0.69013 0.702987 0.68889 0.709242 0.699947 0.691792
          0.685019 0.705774 0.704417 0.719602 0.711779 0.702383
          0.707355 0.698895 0.707717 0.707228 0.709911 0.709915
          0.70609 0.714131 0.718297 0.661903 0.700702 0.693262
          0.708893 0.706159 0.687759 0.688245 0.695075 0.704705
          0.697188 0.705397 0.70622 0.702942 0.700481 0.693909
          0.7109 0.70172 0.70649 0.69965 0.700402 0.700119
          0.723713 0.712217 0.693792 0.700001 0.704552 0.717889
          0.698132 0.706098 0.717494 0.716673 0.711062 0.71177
          0.631695 0.679329 0.706575 0.698092 0.699779 0.700761
          0.684199 0.683143 0.682645 0.704071 0.715066 0.692819
          0.703041 0.694075 0.716623 0.693527 0.694421 0.702147
          0.696457 0.69514 0.713433 0.6799 0.706511 0.692
          0.694887 0.69544 0.684597 0.681617 0.695168 0.691522
          0.699562 0.69859 0.690048 0.644968 0.70385 0.696081
          0.703178 0.696952 0.70551 0.713106 0.700231 0.699182
          0.70162 0.707481 0.696391 0.692267 0.706607 0.703427
          0.69906 0.696866 0.696513 0.698179 0.696881 0.704962
          0.69765 0.688392 0.693288 0.69211 0.694178 0.706709
          0.707186 0.700702 0.693116 0.687891 0.686747 0.692855
          0.636074 0.683945 0.689913 0.697582 0.696395 0.692483
          0.694402 0.712841 0.686359 0.690995 0.681763 0.680986
          0.701139 0.709755 0.702491 0.697098 0.698416 0.694933
          0.692654 0.695885 0.696124 0.693333 0.700496 0.701922
          0.701309 0.684026 0.69469 0.698211 0.707275 0.689584
          0.691375 0.694707 0.707106 0.618623 0.685985 0.691971
          0.708586 0.684876 0.683143 0.689272 0.685271 0.696204
          0.705481 0.715555 0.67909 0.70895 0.712914 0.713182
          0.690972 0.688019 0.701837 0.698955 0.699816 0.711343
          0.71086 0.710429 0.711431 0.720928 0.716394 0.71503
          0.711706 0.713747 0.694589 0.696351 0.715805 0.707974
          0.6188 0.685083 0.702722 0.695077 0.674571 0.67858
          0.684979 0.710328 0.699721 0.705961 0.701484 0.699547
          0.716413 0.708645 0.701188 0.706852 0.70744 0.707344
          0.704547 0.707312 0.704838 0.71093 0.697793 0.704995
          0.687509 0.681693 0.691598 0.695991 0.68723 0.70951
          0.694839 0.693739 0.711057 0.637307 0.690278 0.691097
          0.687578 0.687688 0.693503 0.688163 0.683122 0.707287
          0.695167 0.71119 0.703233 0.704608 0.70921 0.710571
          0.7052 0.70248 0.697591 0.684613 0.71168 0.692389
          0.689639 0.701909 0.669213 0.697489 0.68854 0.694806
          0.687509 0.690172 0.694851 0.708062 0.703828 0.684015
          0.654185 0.699138 0.706489 0.691154 0.708983 0.695333
          0.707795 0.690933 0.723741 0.6989 0.703043 0.697623
          0.686523 0.70181 0.698768 0.720781 0.704309 0.679279
          0.699896 0.697418 0.706374 0.706086 0.691458 0.712012
          0.721021 0.716658 0.713216 0.69307 0.701184 0.713622
          0.720003 0.706214 0.715757 0.645315 0.70439 0.696504
          0.704787 0.693085 0.688357 0.689844 0.696783 0.721315
          0.709416 0.705267 0.704653 0.691818 0.709096 0.692854
          0.711133 0.714315 0.692328 0.685292 0.701809 0.712351
          0.700013 0.692745 0.708183 0.69871 0.707046 0.698934
          0.700616 0.710245 0.710349 0.727106 0.712791 0.709813
          0.61568 0.684841 0.70081 0.68999 0.681477 0.688051
          0.692348 0.702935 0.694649 0.709531 0.680713 0.706728
          0.701816 0.698365 0.703696 0.694878 0.69772 0.704963
          0.693918 0.704146 0.695642 0.696911 0.693527 0.704798
          0.701844 0.701359 0.708139 0.703713 0.702611 0.691696
          0.702475 0.700354 0.696784 0.651319 0.701509 0.70177
          0.696466 0.697249 0.711181 0.703832 0.711875 0.698345
          0.712235 0.701591 0.694174 0.714459 0.696583 0.705185
          0.702696 0.696843 0.69389 0.703394 0.683249 0.704833
          0.702288 0.70379 0.712067 0.70843 0.711191 0.702172
          0.713062 0.705809 0.698606 0.713462 0.716581 0.712816
          0.626237 0.691836 0.691488 0.681548 0.687349 0.683202
          0.676089 0.699428 0.709505 0.697674 0.704174 0.70023
          0.701781 0.693362 0.690243 0.721331 0.694616 0.689205
          0.701049 0.702357 0.707648 0.696116 0.680434 0.689115
          0.684354 0.677522 0.689397 0.691118 0.681947 0.68408
          0.686475 0.685495 0.701743 0.65058 0.711991 0.691141
          0.694252 0.711811 0.685487 0.695377 0.701672 0.703665
          0.702844 0.684277 0.708738 0.708483 0.697294 0.689383
          0.703486 0.688539 0.709071 0.700942 0.69763 0.686482
          0.691352 0.68625 0.692177 0.683499 0.691053 0.704625
          0.687953 0.698039 0.682251 0.683817 0.687584 0.685608
          0.646709 0.700439 0.706043 0.691147 0.706187 0.696956
          0.695171 0.705703 0.695684 0.693839 0.688305 0.704454
          0.698932 0.702893 0.704807 0.707715 0.705353 0.697221
          0.698192 0.69748 0.690907 0.694222 0.67911 0.696235
          0.692848 0.69929 0.685692 0.674046 0.687832 0.679959
          0.677627 0.700628 0.683184 0.655414 0.702987 0.698887
          0.697213 0.707878 0.666855 0.708018 0.708933 0.700769
          0.695332 0.708712 0.711602 0.695792 0.68749 0.693023
          0.699994 0.697072 0.688555 0.701316 0.708166 0.685183
          0.690568 0.673182 0.687789 0.69273 0.698805 0.683955
          0.687143 0.700387 0.700838 0.706588 0.678562 0.684705
          0.619884 0.683702 0.702356 0.697911 0.690678 0.685148
          0.694509 0.687813 0.683544 0.697667 0.700066 0.683698
          0.702333 0.688551 0.693472 0.699929 0.710442 0.703094
          0.712515 0.694608 0.711284 0.70533 0.715849 0.71489
          0.705944 0.721624 0.700378 0.723771 0.718341 0.709726
          0.71561 0.707453 0.709099 0.625411 0.675762 0.687065
          0.681758 0.677331 0.690289 0.70131 0.709096 0.690426
          0.702223 0.696764 0.697195 0.700441 0.708583 0.691118
          0.699877 0.697046 0.707122 0.695653 0.695004 0.690207
          0.689573 0.685926 0.696469 0.691792 0.690096 0.692575
          0.691023 0.685303 0.685759 0.690625 0.695002 0.690884
          0.630102 0.691041 0.692784 0.695447 0.698296 0.686076
          0.684482 0.681176 0.687934 0.688267 0.697345 0.703392
          0.712331 0.699014 0.695636 0.700403 0.701396 0.700551
          0.698264 0.697466 0.715589 0.725218 0.704613 0.72578
          0.713811 0.705518 0.713515 0.703478 0.708186 0.714211
          0.728999 0.711895 0.706345 0.622825 0.705946 0.709823
          0.696658 0.695401 0.704762 0.709601 0.703346 0.686505
          0.710392 0.686808 0.698595 0.716604 0.700826 0.706791
          0.69451 0.706288 0.707113 0.710764 0.700427 0.697451
          0.708759 0.703153 0.704826 0.707503 0.694583 0.686029
          0.69541 0.691542 0.692099 0.677103 0.697113 0.696008
          0.636291 0.686127 0.699338 0.709109 0.688973 0.705947
          0.711773 0.702885 0.694096 0.704422 0.701337 0.687424
          0.695174 0.700011 0.71628 0.69582 0.695171 0.704393
          0.702023 0.694698 0.684693 0.707994 0.703237 0.69177
          0.69053 0.70794 0.693903 0.705586 0.69222 0.699844
          0.686687 0.704981 0.696281 0.630341 0.699029 0.700317
          0.700228 0.693086 0.705694 0.704318 0.69786 0.697251
          0.689845 0.703793 0.687124 0.711219 0.712712 0.684234
          0.699512 0.698918 0.694398 0.710172 0.710232 0.702379
          0.690677 0.70347 0.690591 0.706802 0.696031 0.704443
          0.694094 0.710267 0.698467 0.68811 0.692794 0.694038
          0.64009 0.690889 0.700682 0.693041 0.682603 0.7007
          0.689277 0.688132 0.690442 0.696958 0.688639 0.705665
          0.70485 0.701325 0.69053 0.702996 0.709933 0.696199
          0.706781 0.699298 0.698228 0.699067 0.702734 0.705617
          0.70113 0.699971 0.697934 0.720722 0.718669 0.711096
          0.696457 0.710786 0.706896 0.628359 0.682927 0.68915
          0.686691 0.701783 0.693224 0.693806 0.694941 0.707807
          0.69879 0.702882 0.697568 0.693682 0.697 0.695023
          0.694972 0.700806 0.696014 0.708509 0.7049 0.686621
          0.695753 0.694489 0.680691 0.691874 0.694702 0.684618
          0.694353 0.699805 0.685192 0.702195 0.693622 0.672713
          0.646027 0.702294 0.696426 0.696883 0.69776 0.693284
          0.699196 0.702214 0.706306 0.709042 0.690371 0.717403
          0.682299 0.698806 0.700574 0.698032 0.702224 0.688655
          0.699258 0.698984 0.674256 0.677369 0.679718 0.694425
          0.696891 0.690068 0.700397 0.686604 0.686083 0.695784
          0.699995 0.708628 0.68219 0.627303 0.692795 0.68898
          0.705809 0.694818 0.699336 0.692599 0.705281 0.686768
          0.70189 0.693047 0.703839 0.708965 0.703274 0.69972
          0.696137 0.693072 0.694024 0.707466 0.703833 0.688563
          0.711891 0.705252 0.701712 0.711401 0.6996 0.693297
          0.708137 0.691983 0.69632 0.689319 0.696853 0.692349
          0.651061 0.700235 0.7082 0.694632 0.706251 0.69451
          0.6993 0.69954 0.696862 0.691485 0.695308 0.706846
          0.700796 0.709337 0.701399 0.681756 0.699789 0.703138
          0.68412 0.691273 0.711885 0.710433 0.715505 0.711822
          0.721532 0.701606 0.695782 0.714249 0.71608 0.700926
          0.700461 0.715233 0.714514 0.616066 0.684456 0.69454
          0.677279 0.691648 0.679535 0.690852 0.692941 0.692066
          0.692459 0.69997 0.691399 0.703381 0.695851 0.695194
          0.694939 0.701125 0.709653 0.699647 0.695943 0.714633
          0.716572 0.711345 0.709796 0.71193 0.706096 0.706666
          0.706464 0.704521 0.710948 0.712411 0.722309 0.71659
          0.622497 0.685249 0.697296 0.668942 0.687092 0.700428
          0.691447 0.68296 0.698368 0.693392 0.696467 0.686707
          0.712543 0.706328 0.701371 0.68971 0.707834 0.695998
          0.698259 0.688507 0.718373 0.723171 0.705314 0.712536
          0.71177 0.716586 0.722663 0.705507 0.698874 0.708346
          0.701655 0.710868 0.711105 0.652769 0.705036 0.684108
          0.701867 0.697585 0.697856 0.706185 0.711731 0.700089
          0.698058 0.700537 0.691277 0.702364 0.706688 0.699158
          0.682563 0.709729 0.707687 0.694528 0.701 0.714396
          0.698836 0.706414 0.701374 0.709393 0.713704 0.710528
          0.702413 0.703085 0.69119 0.706951 0.713858 0.703455
          0.64228 0.689741 0.710055 0.691816 0.69867 0.698934
          0.701409 0.706344 0.715645 0.676268 0.705642 0.70063
          0.712081 0.69131 0.699887 0.705402 0.698982 0.687707
          0.702411 0.696307 0.706823 0.696395 0.707718 0.709403
          0.709168 0.709204 0.70756 0.718838 0.704168 0.700054
          0.694549 0.708428 0.701288 0.632678 0.686833 0.671174
          0.68217 0.69166 0.688523 0.682566 0.71837 0.698548
          0.713786 0.682455 0.695877 0.700646 0.694695 0.690484
          0.691725 0.692391 0.698374 0.698769 0.714837 0.708087
          0.706019 0.716047 0.696978 0.708023 0.702921 0.705344
          0.700311 0.701713 0.711459 0.703081 0.706431 0.708737
          0.653182 0.68987 0.717172 0.687346 0.70595 0.698689
          0.719161 0.705778 0.68991 0.694461 0.700661 0.687512
          0.700925 0.687868 0.696613 0.706808 0.694416 0.707594
          0.696461 0.696928 0.717009 0.710158 0.706572 0.707211
          0.706027 0.70462 0.70567 0.700551 0.706005 0.695713
          0.703014 0.716242 0.720238 0.627894 0.679287 0.694414
          0.681705 0.684389 0.699587 0.681186 0.684962 0.691138
          0.700784 0.700063 0.701512 0.701193 0.702436 0.69033
          0.703573 0.702128 0.696028 0.70949 0.68801 0.708983
          0.716244 0.696508 0.698119 0.706336 0.720014 0.720088
          0.715144 0.708229 0.705107 0.692429 0.700851 0.703763
          0.646796 0.71479 0.704423 0.69804 0.705013 0.702499
          0.695631 0.703888 0.700203 0.688915 0.729361 0.702221
          0.685855 0.703759 0.699065 0.701375 0.706518 0.698079
          0.693598 0.698349 0.696385 0.70926 0.710406 0.705355
          0.722247 0.713345 0.698041 0.704003 0.700889 0.707636
          0.715025 0.714041 0.715154 0.622966 0.690933 0.688502
          0.70743 0.678452 0.695438 0.696066 0.695319 0.692213
          0.692501 0.693622 0.690286 0.707453 0.683229 0.694542
          0.700273 0.697683 0.709704 0.689816 0.695751 0.692291
          0.71005 0.706023 0.708675 0.712335 0.694049 0.704235
          0.710562 0.707284 0.686097 0.691348 0.705232 0.699836
          0.638606 0.696668 0.696446 0.696493 0.70054 0.696632
          0.712038 0.704866 0.708093 0.699288 0.715145 0.681226
          0.712246 0.692238 0.709087 0.716778 0.700253 0.71432
          0.706873 0.703928 0.689829 0.714376 0.702281 0.696033
          0.686218 0.699329 0.683794 0.693329 0.686298 0.691894
          0.687771 0.688747 0.69713 0.656302 0.697234 0.693467
          0.701171 0.697479 0.696762 0.701428 0.693534 0.700485
          0.694553 0.699521 0.715611 0.683905 0.706735 0.705429
          0.707629 0.704381 0.689982 0.697835 0.706195 0.701975
          0.693182 0.687602 0.67927 0.690728 0.701213 0.692122
          0.690614 0.700522 0.708285 0.705869 0.70039 0.690833
          0.652799 0.696443 0.715143 0.701544 0.705904 0.698551
          0.700379 0.692506 0.70914 0.693506 0.696076 0.7151
          0.685099 0.702704 0.684027 0.715463 0.702221 0.692905
          0.700362 0.711628 0.680113 0.698422 0.702079 0.690805