<?xml version="1.0"?>
<VTKFile type="PolyData" version="0.1" byte_order="LittleEndian" header_type="UInt32" compressor="vtkZLibDataCompressor">
  <PolyData>
    <Piece NumberOfPoints="7920" NumberOfVerts="0" NumberOfLines="0" NumberOfStrips="0" NumberOfPolys="0">
      <PointData Scalars="Calcium Concentration">
        <DataArray type="Float32" Name="Calcium Concentration" format="ascii" RangeMin="0.5145949721336365" RangeMax="0.7362020015716553">
          0.53846 0.70749 0.69718 0.698077 0.702465 0.692909
          0.690251 0.711354 0.698713 0.686332 0.700362 0.702919
          0.697132 0.706064 0.700119 0.70901 0.689312 0.698708
          0.708691 0.698817 0.689756 0.675531 0.686188 0.690573
          0.68699 0.688764 0.696182 0.690154 0.68421 0.689994
          0.704611 0.686646 0.687203 0.547958 0.700197 0.699918
          0.695395 0.692259 0.697691 0.702104 0.709046 0.71075
          0.704001 0.690521 0.707438 0.691515 0.699993 0.71264
          0.686549 0.699645 0.695227 0.696541 0.707557 0.690178
          0.705494 0.685099 0.675438 0.680865 0.702833 0.70532
          0.686374 0.688986 0.697886 0.697554 0.688656 0.686647
          0.539063 0.688096 0.692965 0.679834 0.685921 0.690715
          0.694143 0.693191 0.701911 0.702706 0.696411 0.699343
          0.697635 0.699131 0.714712 0.706049 0.708194 0.711894
          0.723244 0.703785 0.712286 0.705197 0.713331 0.701957
          0.701585 0.710173 0.708687 0.701747 0.707784 0.704008
          0.710093 0.710713 0.709133 0.545981 0.689389 0.712749
          0.692899 0.699449 0.685706 0.710497 0.699258 0.711768
          0.7019 0.688294 0.697495 0.692813 0.703142 0.70396
          0.700655 0.698736 0.690537 0.704808 0.702898 0.707307
          0.687883 0.6922 0.689788 0.690657 0.71461 0.707139
          0.697421 0.697082 0.694502 0.700003 0.701304 0.696228
          0.541158 0.688985 0.686594 0.695739 0.687992 0.690073
          0.692902 0.692939 0.691155 0.706102 0.706323 0.698836
          0.703221 0.697468 0.696601 0.703476 0.707968 0.689451
          0.704901 0.700927 0.691515 0.691744 0.691818 0.686887
          0.688662 0.688189 0.680183 0.696878 0.694031 0.698246
          0.687276 0.693778 0.702144 0.556564 0.700242 0.697717
          0.695968 0.685546 0.710886 0.689559 0.700888 0.714771
          0.70161 0.689501 0.698975 0.697437 0.70376 0.7041
          0.70255 0.709729 0.696313 0.719736 0.702086 0.696105
          0.701861 0.701464 0.695481 0.696847 0.723983 0.707717
          0.696621 0.702612 0.714749 0.716607 0.709285 0.704667
          0.540398 0.686676 0.686806 0.685769 0.672849 0.683011
          0.679494 0.690917 0.7163 0.706216 0.687214 0.691346
          0.702336 0.718366 0.693288 0.696709 0.695267 0.696866
          0.701727 0.689556 0.709605 0.703261 0.696322 0.70056
          0.698638 0.712198 0.715152 0.718823 0.710128 0.701437
          0.715089 0.714198 0.716018 0.535193 0.686087 0.675723
          0.701213 0.691913 0.69461 0.684278 0.662688 0.708386
          0.691634 0.696873 0.721037 0.707687 0.706635 0.699697
          0.697572 0.704912 0.711653 0.710386 0.699715 0.690599
          0.686802 0.692853 0.69275 0.693512 0.694834 0.701121
          0.687499 0.684011 0.679662 0.700932 0.67981 0.68606
          0.531111 0.685035 0.687053 0.696015 0.6895 0.694296
          0.681774 0.702903 0.702724 0.699985 0.704246 0.716483
          0.7051 0.707895 0.705035 0.702523 0.710196 0.695368
          0.702591 0.689508 0.702422 0.702531 0.697384 0.699487
          0.719581 0.71291 0.700649 0.697906 0.707649 0.701875
          0.71886 0.705389 0.719492 0.55317 0.704032 0.698514
          0.700862 0.691307 0.695229 0.699252 0.702629 0.700106
          0.703928 0.719274 0.690064 0.691935 0.709827 0.688073
          0.701023 0.702236 0.699398 0.700593 0.694608 0.696485
          0.70229 0.697444 0.696236 0.712067 0.716765 0.709094
          0.703163 0.701717 0.709747 0.711035 0.702173 0.711151
          0.562069 0.705674 0.695498 0.704471 0.698217 0.703236
          0.708369 0.691981 0.694359 0.699826 0.705089 0.702944
          0.709942 0.694061 0.688907 0.706267 0.70075 0.706053
          0.699539 0.694462 0.710997 0.707913 0.720623 0.711239
          0.700652 0.710751 0.721546 0.705963 0.700395 0.705518
          0.714693 0.716828 0.721243 0.535087 0.688165 0.689902
          0.686811 0.673371 0.684713 0.693521 0.70513 0.694592
          0.699288 0.692816 0.702204 0.715183 0.706243 0.690173
          0.697338 0.706446 0.706771 0.701374 0.713024 0.690019
          0.687012 0.687724 0.683746 0.679785 0.689817 0.694072
          0.69477 0.686308 0.690263 0.694311 0.689421 0.696845
          0.555706 0.70521 0.686035 0.718164 0.683084 0.707687
          0.717727 0.701498 0.698038 0.690462 0.697716 0.698386
          0.708578 0.697254 0.696112 0.706156 0.701407 0.705701
          0.689625 0.711799 0.686907 0.70035 0.69654 0.679197
          0.696256 0.695217 0.684813 0.690428 0.704311 0.686322
          0.697587 0.691956 0.699686 0.546817 0.689423 0.680683
          0.694082 0.707309 0.694651 0.704102 0.703004 0.687806
          0.703863 0.701239 0.710081 0.702983 0.699464 0.703085
          0.700202 0.691815 0.697307 0.714841 0.692143 0.694628
          0.703656 0.680376 0.683413 0.690025 0.696158 0.688118
          0.69304 0.701968 0.690164 0.684103 0.692707 0.692001
          0.533544 0.678739 0.687307 0.689901 0.692611 0.681577
          0.688337 0.692996 0.68444 0.697095 0.691799 0.694972
          0.70444 0.71311 0.706308 0.685556 0.708035 0.70876
          0.689987 0.700138 0.711052 0.705356 0.707153 0.707192
          0.699805 0.709895 0.719201 0.716769 0.717042 0.719426
          0.705127 0.717787 0.725126 0.529041 0.694413 0.692533
          0.697814 0.705929 0.702142 0.693163 0.694485 0.687966
          0.703442 0.687634 0.689335 0.699002 0.711096 0.698802
          0.695284 0.688482 0.70626 0.690314 0.696557 0.688704
          0.68331 0.695195 0.686955 0.690047 0.693108 0.68919
          0.68083 0.685469 0.687691 0.693368 0.679904 0.687286
          0.543341 0.688434 0.682801 0.682142 0.68971 0.696658
          0.694876 0.696263 0.685928 0.698573 0.690875 0.699214
          0.700072 0.703779 0.703262 0.705413 0.698442 0.712586
          0.697092 0.690105 0.679108 0.68129 0.694968 0.686753
          0.6998 0.688749 0.698337 0.692223 0.698466 0.705534
          0.7036 0.687799 0.694828 0.526845 0.703178 0.677018
          0.674797 0.698119 0.685835 0.678427 0.71254 0.700792
          0.688372 0.698477 0.701192 0.690817 0.72009 0.689883
          0.717934 0.694111 0.693959 0.706389 0.699761 0.703476
          0.71621 0.704074 0.703958 0.705456 0.715731 0.702265
          0.702049 0.700576 0.700567 0.71399 0.705954 0.714745
          0.531648 0.686775 0.680274 0.681988 0.685585 0.67924
          0.679801 0.696779 0.685978 0.701043 0.698193 0.703211
          0.716471 0.699447 0.695582 0.698032 0.697953 0.71228
          0.697816 0.7068 0.687986 0.686985 0.682356 0.695424
          0.694419 0.69677 0.695459 0.682167 0.693428 0.688119
          0.70604 0.696629 0.712067 0.553214 0.694663 0.699222
          0.693747 0.714104 0.684128 0.706941 0.694794 0.7062
          0.696565 0.702047 0.706356 0.7044 0.713107 0.696276
          0.697142 0.691135 0.690358 0.708606 0.69914 0.693471
          0.690851 0.691354 0.685357 0.686243 0.686615 0.698376
          0.69404 0.68437 0.685193 0.691439 0.688548 0.691118
          0.544017 0.716159 0.699975 0.702301 0.709298 0.686643
          0.695657 0.706903 0.703878 0.693146 0.717867 0.696175
          0.698631 0.713516 0.695297 0.698584 0.699112 0.698921
          0.700221 0.698881 0.688422 0.693839 0.677054 0.692377
          0.691477 0.702377 0.67813 0.693305 0.696507 0.698783
          0.69602 0.685124 0.695267 0.553159 0.690958 0.698477
          0.687249 0.701371 0.706238 0.715176 0.687995 0.703334
          0.701251 0.686223 0.705113 0.703665 0.696155 0.707178
          0.694953 0.70203 0.696754 0.696242 0.701735 0.708501
          0.707677 0.714666 0.707334 0.695056 0.70978 0.718146
          0.694301 0.717787 0.708492 0.712827 0.702814 0.703662
          0.543647 0.704023 0.688072 0.717033 0.692917 0.69913
          0.7025 0.708204 0.697245 0.698024 0.703779 0.705549
          0.689528 0.719816 0.694799 0.714751 0.701345 0.695227
          0.70453 0.689633 0.720762 0.703652 0.710424 0.698511
          0.707686 0.721964 0.701547 0.701695 0.71451 0.714919
          0.721015 0.707226 0.710032 0.560824 0.712298 0.695181
          0.699923 0.71253 0.691061 0.704768 0.711621 0.703321
          0.704346 0.702937 0.692918 0.704133 0.710006 0.706148
          0.704461 0.690561 0.708105 0.683755 0.690877 0.702342
          0.7049 0.718623 0.701541 0.709341 0.728756 0.707084
          0.724235 0.725695 0.710703 0.716363 0.697201 0.706085
          0.538755 0.689559 0.694079 0.711414 0.707978 0.692267
          0.697741 0.697194 0.704607 0.713621 0.69902 0.697116
          0.700532 0.699366 0.711724 0.687738 0.707129 0.704803
          0.708726 0.703704 0.688587 0.69551 0.688334 0.692831
          0.699401 0.708287 0.698174 0.697697 0.693516 0.703342
          0.694722 0.68137 0.692089 0.553185 0.691749 0.70088
          0.694753 0.690865 0.687502 0.711163 0.69963 0.70494
          0.703475 0.703824 0.688011 0.701625 0.695029 0.70669
          0.692578 0.695924 0.699175 0.705232 0.699245 0.693806
          0.692277 0.682005 0.686263 0.685282 0.69271 0.693074
          0.694649 0.699198 0.699964 0.68526 0.693439 0.697037
          0.544449 0.706395 0.700254 0.69799 0.698361 0.702178
          0.69879 0.705897 0.70811 0.705025 0.689779 0.7063
          0.699376 0.719935 0.681865 0.702732 0.696435 0.701916
          0.707836 0.703227 0.68751 0.692868 0.682799 0.678022
          0.690818 0.691413 0.684843 0.681448 0.686778 0.69274
          0.691718 0.680544 0.687101 0.53822 0.692921 0.679858
          0.687355 0.707598 0.701361 0.696345 0.698987 0.694631
          0.693429 0.706423 0.69572 0.700323 0.709547 0.709596
          0.701092 0.704997 0.687124 0.717974 0.700884 0.680303
          0.695685 0.687158 0.686982 0.693048 0.684319 0.68995
          0.68439 0.689564 0.701577 0.694353 0.688229 0.693034
          0.541962 0.703356 0.699877 0.712874 0.70296 0.695884
          0.694583 0.704074 0.686163 0.710966 0.694109 0.692709
          0.710061 0.696314 0.718448 0.703284 0.69512 0.718322
          0.703254 0.69553 0.690639 0.683994 0.682607 0.692675
          0.685284 0.680322 0.685493 0.694167 0.704175 0.682157
          0.687378 0.69578 0.695163 0.544187 0.70359 0.701743
          0.694009 0.711233 0.691124 0.713635 0.690361 0.707664
          0.705314 0.703041 0.700925 0.686684 0.720904 0.69582
          0.69928 0.701742 0.697814 0.711515 0.688023 0.692481
          0.694949 0.673207 0.703267 0.690167 0.700414 0.690494
          0.692392 0.706591 0.708482 0.696159 0.693211 0.692188
          0.53814 0.686914 0.699885 0.698472 0.690123 0.686801
          0.692054 0.702516 0.680921 0.710604 0.699517 0.701601
          0.695418 0.701766 0.689867 0.712135 0.695324 0.703115
          0.700446 0.695829 0.705259 0.713574 0.70918 0.710485
          0.723374 0.717815 0.712468 0.697195 0.706305 0.709322
          0.695317 0.712169 0.710177 0.531259 0.679828 0.689399
          0.687903 0.698316 0.690642 0.702781 0.696438 0.681178
          0.687749 0.698409 0.714217 0.699742 0.713242 0.698628
          0.701758 0.69003 0.694932 0.698518 0.69629 0.714662
          0.722297 0.700839 0.689263 0.712384 0.71105 0.702478
          0.707271 0.704106 0.707733 0.717165 0.71595 0.708595
          0.545251 0.710101 0.689537 0.696515 0.702128 0.701068
          0.704812 0.680507 0.709024 0.707581 0.712986 0.68315
          0.699236 0.713698 0.705258 0.699921 0.69285 0.694078
          0.699946 0.691298 0.699049 0.716147 0.705362 0.696892
          0.694743 0.723705 0.706934 0.705656 0.70665 0.711735
          0.713409 0.712177 0.705098 0.532587 0.67885 0.676851
          0.695057 0.676411 0.698998 0.692914 0.695871 0.687103
          0.711882 0.701212 0.691315 0.700041 0.71102 0.69566
          0.68958 0.692879 0.705698 0.703635 0.699839 0.691478
          0.697812 0.688796 0.697546 0.700942 0.693135 0.686604
          0.697488 0.688563 0.680736 0.690153 0.682395 0.689839
          0.541489 0.699952 0.7004 0.679512 0.681659 0.683904
          0.707904 0.685844 0.693162 0.699648 0.695454 0.705374
          0.705605 0.69935 0.704198 0.697067 0.70845 0.702876
          0.695614 0.708786 0.695192 0.701918 0.680253 0.703732
          0.68028 0.689973 0.707021 0.691086 0.682273 0.695916
          0.689771 0.68966 0.692786 0.525854 0.675284 0.700137
          0.705404 0.683992 0.684369 0.692104 0.702349 0.696839
          0.701814 0.679661 0.695231 0.69659 0.688844 0.696903
          0.695874 0.703747 0.705374 0.696141 0.699098 0.704129
          0.704167 0.694154 0.712372 0.706626 0.70131 0.695664
          0.695568 0.694331 0.709005 0.69935 0.681465 0.698802
          0.534583 0.685839 0.705622 0.699499 0.702923 0.695905
          0.694619 0.700897 0.694223 0.703634 0.696918 0.7082
          0.706725 0.708945 0.702868 0.6963 0.708769 0.694561
          0.708123 0.707716 0.701195 0.689428 0.700543 0.677159
          0.692773 0.693148 0.687272 0.689566 0.703794 0.702156
          0.67608 0.681155 0.693258 0.531721 0.668195 0.695234
          0.688567 0.680827 0.69115 0.68314 0.687036 0.693013
          0.695496 0.689706 0.705822 0.709192 0.70275 0.693644
          0.712276 0.709291 0.708297 0.692331 0.696851 0.709577
          0.703271 0.722532 0.697817 0.708844 0.711982 0.736202
          0.724472 0.716672 0.694688 0.702553 0.705541 0.72061
          0.55504 0.701457 0.702735 0.714071 0.687714 0.704643
          0.704714 0.696631 0.704843 0.69886 0.694541 0.703269
          0.707207 0.708371 0.695788 0.702993 0.702916 0.693158
          0.703434 0.702479 0.700634 0.700778 0.68918 0.710586
          0.701015 0.689895 0.708912 0.696591 0.699485 0.704665
          0.695962 0.706415 0.681392 0.547101 0.697867 0.694421
          0.716324 0.697942 0.699463 0.702816 0.698666 0.71349
          0.691311 0.700863 0.6958 0.712544 0.695085 0.715762
          0.705335 0.685399 0.696439 0.700328 0.697223 0.691245
          0.716227 0.690622 0.694622 0.690582 0.695837 0.685508
          0.683533 0.69423 0.687773 0.70431 0.695649 0.69427
          0.530536 0.692499 0.687975 0.694378 0.708284 0.68955
          0.694757 0.690577 0.706382 0.705466 0.693869 0.699786
          0.716504 0.69495 0.697397 0.703589 0.701349 0.69539
          0.696091 0.710055 0.690202 0.703709 0.695893 0.700573
          0.687219 0.680999 0.689138 0.6982 0.694041 0.696339
          0.684306 0.68959 0.695055 0.55112 0.715218 0.706085
          0.698138 0.694027 0.711192 0.695557 0.70253 0.701519
          0.694157 0.708577 0.679831 0.701757 0.709805 0.680109
          0.693684 0.695975 0.69278 0.69482 0.713159 0.712302
          0.713248 0.703772 0.710622 0.700738 0.722288 0.707679
          0.704953 0.708783 0.711515 0.70101 0.704882 0.705357
          0.545232 0.700684 0.69559 0.696722 0.709252 0.689227
          0.70308 0.703675 0.702653 0.696278 0.708202 0.69865
          0.688176 0.719874 0.697178 0.685606 0.702752 0.704402
          0.712091 0.694795 0.689172 0.694119 0.690677 0.687655
          0.690339 0.707809 0.698318 0.692467 0.678335 0.703392
          0.699967 0.698902 0.681895 0.545672 0.705469 0.70724
          0.694742 0.700916 0.697291 0.697689 0.701724 0.705928
          0.707009 0.708287 0.702727 0.696927 0.70744 0.701412
          0.696885 0.693731 0.694564 0.708239 0.704859 0.71759
          0.70739 0.700938 0.704529 0.708633 0.718631 0.709943
          0.72272 0.701266 0.7072 0.707029 0.692795 0.717283
          0.530563 0.664917 0.703026 0.698668 0.68621 0.686092
          0.685965 0.701794 0.70855 0.704385 0.687797 0.693715
          0.687337 0.690905 0.708042 0.695591 0.699242 0.700609
          0.700311 0.695184 0.720879 0.70311 0.711371 0.72302
          0.714096 0.717369 0.714904 0.714035 0.715382 0.706071
          0.708365 0.725239 0.727526 0.53979 0.683981 0.681381
          0.684901 0.68095 0.693522 0.689873 0.701118 0.693817
          0.699817 0.702146 0.695792 0.707377 0.691526 0.703998
          0.700891 0.712614 0.702434 0.695069 0.704519 0.700741
          0.709928 0.70175 0.697361 0.706964 0.723875 0.713009
          0.706575 0.705217 0.714487 0.7025 0.710644 0.709006
          0.532235 0.678674 0.674697 0.688696 0.689706 0.687397
          0.697078 0.690278 0.698337 0.711704 0.695427 0.700337
          0.704346 0.707623 0.704397 0.699127 0.693097 0.697475
          0.707281 0.699528 0.704677 0.71941 0.715605 0.704034
          0.689567 0.705225 0.707541 0.702096 0.720851 0.714737
          0.7011 0.711805 0.712189 0.555587 0.713021 0.700098
          0.710485 0.709301 0.70268 0.691118 0.699654 0.702327
          0.693495 0.707755 0.700411 0.704015 0.718943 0.700472
          0.710076 0.682234 0.694858 0.692116 0.699533 0.704979
          0.706813 0.701487 0.699196 0.697057 0.710871 0.710909
          0.710747 0.712999 0.708296 0.710824 0.704413 0.707765
          0.533646 0.677102 0.705478 0.687334 0.686088 0.685625
          0.690007 0.679002 0.685518 0.692535 0.695218 0.684243
          0.700306 0.701326 0.706778 0.699099 0.694216 0.695533
          0.702332 0.707768 0.694882 0.697147 0.68352 0.696003
          0.699771 0.710187 0.685945 0.68821 0.689453 0.69727
          0.696712 0.689984 0.683848 0.559651 0.696801 0.700403
          0.710272 0.686374 0.704027 0.704993 0.700656 0.688204
          0.713415 0.706199 0.697195 0.704884 0.689007 0.717784
          0.690477 0.709419 0.702696 0.697756 0.696007 0.692319
          0.693469 0.688251 0.687943 0.68632 0.696943 0.715389
          0.713908 0.705348 0.696178 0.701224 0.701267 0.698954
          0.54273 0.67506 0.69394 0.695385 0.679893 0.689971
          0.694089 0.703306 0.694648 0.69916 0.681461 0.685849
          0.700253 0.710713 0.710315 0.69827 0.702526 0.705802
          0.694944 0.712518 0.693339 0.693783 0.693747 0.698339
          0.696626 0.687817 0.685726 0.696963 0.694649 0.694632
          0.678628 0.704906 0.700222 0.537278 0.684161 0.694824
          0.686019 0.682476 0.683534 0.670898 0.698345 0.692838
          0.704968 0.696679 0.694914 0.712691 0.686863 0.706192
          0.702894 0.689801 0.699846 0.693283 0.710118 0.711129
          0.710232 0.709007 0.72289 0.722737 0.706049 0.720126
          0.715379 0.706644 0.701489 0.705123 0.715545 0.71768
          0.536475 0.671632 0.695761 0.6907 0.686758 0.678246
          0.676418 0.704254 0.69096 0.699769 0.696623 0.688579
          0.698527 0.683844 0.693995 0.712286 0.706516 0.708035
          0.697216 0.709247 0.709568 0.706615 0.696417 0.702925
          0.691699 0.690613 0.68996 0.705271 0.691212 0.691327
          0.697754 0.688719 0.706197 0.524548 0.684626 0.685163
          0.690358 0.686774 0.687625 0.696692 0.68377 0.691582
          0.697035 0.708251 0.712365 0.689619 0.711668 0.694257
          0.699478 0.698155 0.693521 0.698045 0.699495 0.702546
          0.690602 0.707615 0.678783 0.687136 0.700743 0.69324
          0.689242 0.690109 0.681493 0.684678 0.693126 0.686984
          0.541107 0.705923 0.678631 0.699406 0.704079 0.703832
          0.69488 0.686596 0.70661 0.693115 0.703552 0.703463
          0.702745 0.714521 0.694274 0.712127 0.69822 0.695626
          0.716053 0.688979 0.697478 0.714734 0.695372 0.699002
          0.711012 0.724359 0.707239 0.703596 0.704189 0.703137
          0.720704 0.717054 0.719948 0.548121 0.704226 0.683419
          0.707629 0.698133 0.711559 0.703077 0.69267 0.712173
          0.689401 0.703429 0.706139 0.700355 0.711163 0.682946
          0.706439 0.707062 0.688693 0.703226 0.698664 0.715706
          0.690147 0.693344 0.708228 0.720662 0.706406 0.695933
          0.704683 0.717842 0.70787 0.71845 0.712481 0.709067
          0.532792 0.67676 0.700552 0.693179 0.693501 0.683253
          0.680978 0.695252 0.692251 0.709566 0.69673 0.695701
          0.702775 0.684242 0.712137 0.702386 0.709797 0.703333
          0.691679 0.695737 0.706368 0.707349 0.687944 0.696769
          0.699696 0.696708 0.710734 0.70434 0.700516 0.709758
          0.685773 0.711407 0.707841 0.551813 0.698418 0.680944
          0.686505 0.704234 0.694313 0.685125 0.71274 0.695065
          0.699969 0.691504 0.711076 0.693313 0.703829 0.696753
          0.70007 0.697872 0.709004 0.696027 0.697951 0.700375
          0.700188 0.700174 0.699759 0.707541 0.71244 0.705686
          0.708761 0.707484 0.709123 0.706104 0.70712 0.705491
          0.54039 0.686305 0.691895 0.685668 0.685548 0.684046
          0.687468 0.712835 0.682163 0.695592 0.704593 0.699017
          0.696587 0.696408 0.700035 0.698997 0.691658 0.703384
          0.695047 0.710851 0.694148 0.685578 0.682636 0.685851
          0.700258 0.676164 0.690588 0.692406 0.68986 0.692057
          0.683554 0.689427 0.693916 0.531658 0.697195 0.695318
          0.684794 0.718335 0.701131 0.711282 0.701866 0.710881
          0.706998 0.701227 0.706629 0.709135 0.701135 0.702596
          0.703186 0.698245 0.697705 0.698769 0.705582 0.674791
          0.695505 0.680473 0.684356 0.690757 0.703537 0.700392
          0.689455 0.695889 0.691269 0.696996 0.690865 0.693421
          0.556956 0.70524 0.700218 0.691268 0.718342 0.6984
          0.710535 0.700558 0.694442 0.708509 0.702692 0.702326
          0.688924 0.696466 0.715232 0.697917 0.706595 0.697028
          0.701527 0.700996 0.709925 0.688914 0.679179 0.69108
          0.690571 0.708344 0.685096 0.681496 0.694334 0.683603
          0.697521 0.711824 0.685143 0.561599 0.713428 0.69357
          0.695114 0.707844 0.68399 0.699149 0.708241 0.703195
          0.69381 0.700926 0.694468 0.7036 0.702744 0.695973
          0.698688 0.696321 0.689534 0.707816 0.700483 0.686698
          0.672659 0.680236 0.69468 0.681284 0.706318 0.684646
          0.699048 0.699626 0.690397 0.705168 0.677117 0.692111
          0.52741 0.665476 0.698051 0.690838 0.690151 0.679677
          0.677089 0.691779 0.687085 0.702444 0.696004 0.690018
          0.718244 0.699551 0.708631 0.699909 0.694306 0.692544
          0.698132 0.699654 0.699395 0.714185 0.715161 0.71618
          0.713499 0.703032 0.707007 0.727092 0.707006 0.708111
          0.712829 0.720066 0.713886 0.52705 0.678202 0.691583
          0.677181 0.679564 0.680159 0.697418 0.710513 0.695571
          0.716909 0.693812 0.697479 0.697277 0.706541 0.699151
          0.704022 0.69497 0.713625 0.693324 0.699454 0.685819
          0.6984 0.692256 0.690276 0.707421 0.689317 0.695167
          0.68984 0.680394 0.691144 0.696726 0.691673 0.684917
          0.536004 0.685231 0.693097 0.686421 0.70121 0.685637
          0.67969 0.698772 0.687784 0.694224 0.703032 0.699246
          0.69413 0.699107 0.695626 0.708785 0.699901 0.690907
          0.705986 0.697065 0.715064 0.726184 0.711368 0.714067
          0.716564 0.719878 0.717483 0.710313 0.71169 0.714993
          0.720463 0.710684 0.705755 0.538619 0.691843 0.708603
          0.696245 0.705446 0.691554 0.688129 0.699998 0.692644
          0.710004 0.690686 0.698068 0.69576 0.692516 0.693438
          0.690871 0.704691 0.716557 0.683463 0.706687 0.684852
          0.698919 0.69999 0.709537 0.699406 0.690146 0.690557
          0.705379 0.685386 0.693691 0.676771 0.694818 0.690718
          0.555404 0.696909 0.715669 0.695557 0.701684 0.688081
          0.70495 0.69814 0.696507 0.707721 0.690732 0.695928
          0.697609 0.699906 0.70801 0.707832 0.689444 0.717246
          0.699518 0.689324 0.686818 0.695968 0.701424 0.694735
          0.696032 0.699251 0.696214 0.702681 0.688563 0.701614
          0.707209 0.685138 0.706867 0.542849 0.684504 0.705952
          0.693929 0.705265 0.714414 0.681955 0.710581 0.694676
          0.705145 0.690886 0.697326 0.705619 0.695768 0.702541
          0.683994 0.698076 0.693401 0.697932 0.706551 0.707963
          0.688148 0.690645 0.69178 0.698477 0.701923 0.705186
          0.699013 0.699273 0.699892 0.68597 0.684818 0.70286
          0.553418 0.697979 0.692049 0.699411 0.685723 0.701251
          0.69294 0.690345 0.688387 0.678613 0.684143 0.692216
          0.708026 0.717189 0.688105 0.677808 0.711668 0.715794
          0.699726 0.690211 0.691118 0.699363 0.699448 0.696729
          0.710022 0.703527 0.67994 0.714902 0.720801 0.70324
          0.693915 0.694146 0.709159 0.533328 0.688478 0.67533
          0.68975 0.695605 0.689791 0.690866 0.680461 0.715004
          0.688349 0.691378 0.69339 0.700624 0.712562 0.69874
          0.706337 0.692037 0.702377 0.704619 0.70397 0.683747
          0.696932 0.691382 0.680478 0.6959 0.695769 0.699971
          0.687168 0.68921 0.693313 0.689343 0.689797 0.687394
          0.552263 0.718147 0.699788 0.701642 0.709874 0.701737
          0.697349 0.697985 0.693221 0.70427 0.702069 0.694188
          0.69975 0.710929 0.703117 0.690964 0.68916 0.705788
          0.696989 0.714085 0.683389 0.683497 0.68105 0.687825
          0.692829 0.695844 0.68436 0.698938 0.688738 0.687953
          0.694294 0.700225 0.693832 0.55432 0.682822 0.702012
          0.715228 0.679813 0.690572 0.701464 0.698278 0.692456
          0.707594 0.699421 0.702909 0.713311 0.695925 0.70223
          0.711255 0.70624 0.690388 0.695264 0.697816 0.689301
          0.707023 0.693214 0.70133 0.706226 0.684917 0.702197
          0.703989 0.699808 0.70621 0.691663 0.705453 0.70001
          0.553554 0.694885 0.716238 0.694274 0.692246 0.705237
          0.6902 0.693007 0.693484 0.70468 0.6904 0.707738
          0.691977 0.698663 0.702428 0.69364 0.7113 0.707246
          0.68363 0.691251 0.698681 0.713518 0.704428 0.723985
          0.724395 0.704849 0.718054 0.710057 0.728443 0.701209
          0.703629 0.7159 0.706729 0.52953 0.676306 0.692908
          0.697725 0.68557 0.679658 0.685011 0.68712 0.703411
          0.693012 0.695123 0.696753 0.725718 0.693887 0.695814
          0.697838 0.701993 0.694935 0.69332 0.698682 0.707219
          0.710778 0.712056 0.721717 0.713396 0.70863 0.715237
          0.71277 0.688024 0.703325 0.71337 0.714446 0.710967
          0.5329 0.683286 0.694516 0.678765 0.699875 0.692328
          0.687854 0.691463 0.697841 0.678878 0.68832 0.700711
          0.70228 0.699076 0.711612 0.700812 0.704648 0.706893
          0.711822 0.691676 0.711412 0.722564 0.710125 0.708844
          0.718519 0.707968 0.716602 0.704467 0.724262 0.721682
          0.705299 0.71225 0.725861 0.550822 0.70238 0.710059
          0.698565 0.703719 0.705579 0.710717 0.703042 0.695775
          0.703 0.704185 0.699487 0.708809 0.702347 0.700612
          0.69231 0.705394 0.710477 0.714418 0.700437 0.700276
          0.701272 0.696822 0.704443 0.713595 0.717737 0.712012
          0.714865 0.699589 0.709623 0.706006 0.722895 0.715606
          0.556208 0.675609 0.700945 0.687094 0.697187 0.681682
          0.703458 0.700658 0.713803 0.680853 0.686473 0.718137
          0.708809 0.69887 0.710909 0.70645 0.702333 0.708763
          0.696966 0.687675 0.696719 0.714682 0.711612 0.701457
          0.711559 0.705206 0.722866 0.722276 0.701737 0.704039
          0.692321 0.700387 0.691546 0.550038 0.688623 0.680967
          0.678906 0.697036 0.679589 0.690452 0.701616 0.700023
          0.709787 0.691685 0.709313 0.6827 0.707494 0.702515
          0.703162 0.681212 0.714765 0.700088 0.711767 0.713378
          0.710656 0.706944 0.699304 0.712033 0.718555 0.696281
          0.692876 0.700423 0.711988 0.728897 0.703928 0.709208
          0.550534 0.693592 0.692255 0.692649 0.700748 0.705863
          0.689908 0.703946 0.690026 0.701458 0.690441 0.698434
          0.690392 0.706091 0.694402 0.698692 0.69855 0.705942
          0.695549 0.701745 0.723047 0.716258 0.703406 0.696074
          0.713346 0.695205 0.701119 0.717478 0.701629 0.708056
          0.707736 0.70579 0.71273 0.542613 0.672805 0.686575
          0.697055 0.67411 0.701266 0.69472 0.691151 0.696788
          0.716754 0.700629 0.702549 0.70113 0.708731 0.68866
          0.699662 0.715039 0.696483 0.710938 0.695263 0.716221
          0.708272 0.703069 0.704614 0.71728 0.724611 0.709168
          0.714866 0.7038 0.702202 0.699459 0.70625 0.704775
          0.549288 0.715318 0.683832 0.704817 0.697846 0.688202
          0.709781 0.694636 0.672696 0.695859 0.702405 0.716012
          0.695615 0.718435 0.691746 0.718605 0.697691 0.688675
          0.689551 0.694808 0.701855 0.704641 0.718073 0.703916
          0.719679 0.711177 0.695618 0.696178 0.697315 0.704338
          0.715056 0.7083 0.719728 0.539678 0.672659 0.704497
          0.70751 0.687562 0.680578 0.69102 0.691559 0.700904
          0.696311 0.692677 0.688066 0.699865 0.680253 0.711568
          0.694966 0.704486 0.694867 0.688785 0.70161 0.696634
          0.698118 0.702414 0.706973 0.70068 0.698359 0.714054
          0.703956 0.700085 0.709794 0.695007 0.696488 0.69654
          0.558027 0.678851 0.700306 0.692483 0.688921 0.705983
          0.691215 0.70303 0.68683 0.697661 0.69699 0.708316
          0.705881 0.699362 0.703309 0.692366 0.696712 0.708635
          0.69751 0.702935 0.700165 0.704428 0.699744 0.709137
          0.696446 0.685519 0.686339 0.69516 0.699475 0.69107
          0.69348 0.694609 0.692444 0.552307 0.707693 0.708502
          0.700729 0.697925 0.699282 0.704477 0.694017 0.694433
          0.691013 0.697764 0.713598 0.694453 0.704677 0.699574
          0.698509 0.703096 0.681705 0.709158 0.6952 0.6857
          0.709374 0.691343 0.69135 0.694382 0.712429 0.690469
          0.700359 0.688528 0.69325 0.691327 0.700297 0.699677
          0.536799 0.70638 0.690669 0.705276 0.713413 0.694898
          0.698949 0.710452 0.707552 0.69286 0.691944 0.708147
          0.69914 0.712435 0.684487 0.708307 0.708487 0.696693
          0.706894 0.707327 0.696989 0.691845 0.714435 0.686012