<?xml version="1.0"?>
<VTKFile type="PolyData" version="0.1" byte_order="LittleEndian" header_type="UInt32" compressor="vtkZLibDataCompressor">
  <PolyData>
    <Piece NumberOfPoints="8160" NumberOfVerts="0" NumberOfLines="0" NumberOfStrips="0" NumberOfPolys="0">
      <PointData Scalars="Calcium Concentration">
        <DataArray type="Float32" Name="Calcium Concentration" format="ascii" RangeMin="0.31264400482177734" RangeMax="0.7387580275535583">
          0.333666 0.689868 0.701095 0.698121 0.709234 0.706921
          0.687081 0.691858 0.688226 0.702024 0.699585 0.711885
          0.694779 0.694754 0.689036 0.692299 0.691697 0.718423
          0.715188 0.691527 0.698078 0.689931 0.696152 0.68465
          0.678292 0.689814 0.688276 0.701594 0.699544 0.68368
          0.700447 0.70165 0.69118 0.69588 0.345242 0.694805
          0.702623 0.694736 0.706303 0.702153 0.698922 0.69195
          0.726611 0.700569 0.704128 0.706055 0.702022 0.698552
          0.690451 0.703879 0.695343 0.711693 0.707888 0.695028
          0.692842 0.685653 0.687845 0.679441 0.687793 0.702795
          0.69373 0.684358 0.69516 0.696953 0.713451 0.688657
          0.693961 0.689621 0.3402 0.672397 0.693821 0.682357
          0.686962 0.68408 0.694986 0.689709 0.685006 0.714143
          0.686503 0.70338 0.714873 0.696391 0.705784 0.705999
          0.718106 0.721826 0.718204 0.695307 0.70864 0.713393
          0.704651 0.715772 0.705722 0.705025 0.706002 0.71745
          0.702808 0.712488 0.708053 0.708349 0.700783 0.708077
          0.33475 0.688356 0.700077 0.695961 0.703741 0.69478
          0.707157 0.690467 0.721433 0.712551 0.695675 0.691755
          0.696977 0.702146 0.691913 0.699972 0.698063 0.698012
          0.712429 0.694468 0.704294 0.698829 0.68955 0.693897
          0.688837 0.697284 0.705738 0.695107 0.714917 0.694996
          0.70284 0.694212 0.696849 0.691994 0.32578 0.670405
          0.685335 0.685745 0.676157 0.689338 0.693989 0.682243
          0.707178 0.697598 0.699645 0.689516 0.694133 0.707336
          0.680571 0.711057 0.706441 0.705782 0.720124 0.695144
          0.693558 0.683416 0.701701 0.682059 0.684774 0.688563
          0.690061 0.688038 0.691883 0.703501 0.688746 0.692858
          0.706281 0.685173 0.352356 0.701151 0.703938 0.702105
          0.7014 0.712632 0.704504 0.709926 0.681902 0.695896
          0.697282 0.70009 0.704547 0.694853 0.695223 0.695638
          0.701344 0.694478 0.712344 0.705251 0.702041 0.715115
          0.702638 0.701815 0.716793 0.728163 0.700684 0.702398
          0.693579 0.705047 0.709308 0.708686 0.700391 0.708321
          0.334173 0.678313 0.699114 0.690464 0.676314 0.69941
          0.676118 0.685228 0.696932 0.721329 0.685841 0.701962
          0.698513 0.700529 0.696568 0.696415 0.700583 0.71225
          0.708008 0.695437 0.696222 0.703579 0.701287 0.693832
          0.708605 0.713068 0.713879 0.708698 0.715687 0.713575
          0.712548 0.721602 0.706981 0.704538 0.325392 0.685867
          0.694036 0.700886 0.685783 0.699934 0.693594 0.67153
          0.690999 0.702927 0.723825 0.708424 0.690811 0.715851
          0.692094 0.705441 0.705416 0.696319 0.711707 0.691519
          0.685437 0.694845 0.68831 0.68284 0.695927 0.691228
          0.703396 0.682196 0.698669 0.687024 0.696402 0.680997
          0.673002 0.691904 0.32148 0.677965 0.675171 0.684799
          0.669274 0.687503 0.694827 0.698007 0.696592 0.697119
          0.70639 0.699222 0.703954 0.710731 0.689673 0.705163
          0.711388 0.695874 0.710378 0.68811 0.701019 0.71898
          0.700257 0.70294 0.704729 0.726581 0.699856 0.710106
          0.705024 0.715725 0.713241 0.706449 0.70837 0.711275
          0.334596 0.686457 0.693441 0.693181 0.697658 0.709606
          0.704737 0.699547 0.710533 0.707448 0.701613 0.693454
          0.698694 0.702866 0.701395 0.6871 0.697232 0.709945
          0.725659 0.689675 0.706435 0.701681 0.696224 0.708484
          0.714294 0.710294 0.691862 0.707538 0.713573 0.694887
          0.707304 0.705115 0.704673 0.714985 0.340914 0.694586
          0.703614 0.706682 0.689139 0.711514 0.697642 0.703651
          0.70858 0.70955 0.701152 0.698941 0.704523 0.697926
          0.692498 0.699258 0.699738 0.697125 0.703428 0.710806
          0.710618 0.709083 0.704566 0.709605 0.699822 0.701489
          0.706034 0.701324 0.719616 0.70173 0.719829 0.711513
          0.707922 0.711128 0.328157 0.675506 0.684697 0.694639
          0.680038 0.691839 0.683145 0.701773 0.698156 0.70967
          0.701536 0.704215 0.700389 0.692236 0.691908 0.702825
          0.7012 0.697416 0.707173 0.69965 0.687705 0.692062
          0.702579 0.683639 0.678699 0.707495 0.692807 0.696675
          0.68037 0.685917 0.688375 0.69819 0.696241 0.701527
          0.339218 0.697229 0.709905 0.698345 0.694968 0.695343
          0.712022 0.700442 0.704116 0.702257 0.700307 0.694906
          0.706626 0.695921 0.705953 0.703954 0.698926 0.708412
          0.707216 0.703761 0.692932 0.686439 0.695588 0.68642
          0.689229 0.704173 0.680797 0.684547 0.705951 0.691556
          0.686746 0.684356 0.701188 0.695594 0.344494 0.681975
          0.685841 0.70757 0.708483 0.687709 0.705451 0.690707
          0.697132 0.711783 0.695889 0.70141 0.693614 0.70492
          0.699621 0.694642 0.699408 0.708603 0.719105 0.70159
          0.699205 0.690531 0.675965 0.690582 0.675522 0.692653
          0.690287 0.692717 0.702992 0.684238 0.696085 0.679907
          0.685074 0.692418 0.319295 0.666607 0.687399 0.700554
          0.695816 0.687289 0.686083 0.695205 0.681325 0.701073
          0.699089 0.705893 0.69013 0.706672 0.693932 0.681756
          0.701513 0.693577 0.697432 0.699441 0.708472 0.715042
          0.710653 0.709741 0.708848 0.7126 0.711595 0.70699
          0.716761 0.721256 0.703103 0.722785 0.713277 0.705826
          0.326102 0.701761 0.692394 0.68969 0.707827 0.707101
          0.689203 0.693368 0.700519 0.704335 0.699707 0.702544
          0.697257 0.703356 0.698883 0.705158 0.694872 0.704439
          0.706865 0.709988 0.686122 0.68629 0.697368 0.688108
          0.699676 0.701125 0.693837 0.689332 0.686346 0.689222
          0.69221 0.693024 0.689574 0.691278 0.336786 0.670642
          0.692477 0.696333 0.688205 0.697862 0.689426 0.694753
          0.694152 0.689743 0.700308 0.706916 0.706543 0.698557
          0.713561 0.700608 0.700322 0.704401 0.711081 0.694062
          0.695033 0.698712 0.700506 0.697019 0.686244 0.681955
          0.68946 0.698545 0.696712 0.703757 0.707515 0.701878
          0.685144 0.692665 0.320971 0.68372 0.683328 0.678941
          0.688378 0.695583 0.692156 0.706169 0.691397 0.710817
          0.701262 0.713174 0.699386 0.696189 0.705247 0.695613
          0.695549 0.707362 0.716833 0.698082 0.693961 0.703951
          0.704226 0.714626 0.70541 0.727073 0.694387 0.695365
          0.69202 0.704007 0.703383 0.699401 0.717881 0.72514
          0.322007 0.679855 0.693383 0.690261 0.691586 0.67435
          0.688378 0.692243 0.695349 0.706676 0.687614 0.690205
          0.702437 0.691427 0.700307 0.69796 0.696537 0.711814
          0.697005 0.709582 0.700528 0.689606 0.685163 0.686249
          0.682921 0.698924 0.687083 0.687178 0.687006 0.693727
          0.704613 0.683079 0.695697 0.703655 0.34555 0.68783
          0.690512 0.708958 0.700271 0.689554 0.70506 0.701036
          0.695205 0.710558 0.704213 0.697374 0.686507 0.687678
          0.695943 0.701131 0.70112 0.700195 0.715593 0.698282
          0.687075 0.696932 0.681938 0.6727 0.696655 0.693203
          0.690355 0.694725 0.701593 0.686028 0.689222 0.694953
          0.682223 0.699569 0.327231 0.701415 0.6902 0.691599
          0.697947 0.694842 0.697646 0.715319 0.693163 0.695737
          0.711578 0.693458 0.698133 0.70827 0.679792 0.703281
          0.705393 0.697707 0.722216 0.692046 0.69504 0.70407
          0.677824 0.688333 0.696467 0.693884 0.69166 0.693882
          0.704659 0.700149 0.69324 0.687082 0.704698 0.701854
          0.343453 0.680354 0.706463 0.686962 0.700304 0.70508
          0.708823 0.695595 0.696858 0.712096 0.692611 0.693002
          0.706199 0.684555 0.70196 0.694824 0.697946 0.704763
          0.695286 0.704363 0.706763 0.70259 0.70871 0.711418
          0.702818 0.709916 0.7103 0.70021 0.710394 0.713671
          0.721791 0.704525 0.703926 0.696786 0.337484 0.710133
          0.682104 0.709376 0.70284 0.698455 0.703528 0.710231
          0.687736 0.694422 0.709094 0.695426 0.698034 0.682105
          0.692089 0.703553 0.697383 0.713637 0.710912 0.700062
          0.715516 0.7044 0.698655 0.713773 0.707198 0.698152
          0.702922 0.703951 0.687847 0.699101 0.716917 0.712427
          0.715973 0.718671 0.339333 0.707846 0.701372 0.694695
          0.701953 0.690869 0.705402 0.697965 0.697888 0.69996
          0.702069 0.694345 0.698743 0.702842 0.693867 0.699956
          0.705083 0.706266 0.704777 0.684115 0.701009 0.699106
          0.711652 0.710357 0.710706 0.705806 0.718484 0.71939
          0.721226 0.695697 0.71148 0.703284 0.698637 0.728917
          0.332543 0.690808 0.690643 0.697989 0.707645 0.681609
          0.714281 0.691701 0.706343 0.705088 0.703688 0.692853
          0.688615 0.702896 0.69797 0.699869 0.707741 0.686386
          0.712064 0.696445 0.697347 0.694329 0.667661 0.693363
          0.684576 0.690435 0.691604 0.688791 0.711022 0.699527
          0.688612 0.683099 0.68405 0.692286 0.332137 0.674968
          0.701315 0.709261 0.703076 0.705732 0.702017 0.706458
          0.693925 0.700815 0.689646 0.703667 0.699325 0.693173
          0.697104 0.699319 0.701104 0.694417 0.698754 0.695643
          0.702321 0.690651 0.68727 0.687692 0.684996 0.693632
          0.705172 0.693511 0.703787 0.704451 0.683495 0.696861
          0.698369 0.689309 0.342026 0.69607 0.689547 0.703933
          0.705966 0.702901 0.703133 0.700468 0.69359 0.692758
          0.711758 0.695666 0.701383 0.706069 0.686226 0.68851
          0.706712 0.715253 0.690554 0.705178 0.696821 0.688709
          0.676064 0.697271 0.696515 0.696597 0.680402 0.688119
          0.673694 0.679744 0.689123 0.684735 0.692772 0.699121
          0.334004 0.688336 0.688611 0.694253 0.689174 0.700625
          0.693567 0.703215 0.685277 0.702329 0.706769 0.673455
          0.695474 0.677982 0.68511 0.707965 0.711626 0.690271
          0.713713 0.69931 0.701808 0.700166 0.689285 0.686411
          0.689645 0.686393 0.693874 0.682428 0.67982 0.684536
          0.699476 0.699011 0.681727 0.709949 0.330568 0.689688
          0.688361 0.702423 0.706832 0.696325 0.700703 0.702935
          0.680606 0.729892 0.682186 0.687576 0.701819 0.685352
          0.707929 0.703386 0.696279 0.699624 0.705487 0.707217
          0.69779 0.687345 0.67766 0.688831 0.687166 0.690433
          0.68817 0.686507 0.714976 0.695698 0.682811 0.701324
          0.704589 0.683562 0.335695 0.684373 0.691556 0.703452
          0.700257 0.685633 0.708714 0.688112 0.701086 0.711076
          0.706064 0.695691 0.693565 0.707919 0.696669 0.718446
          0.69521 0.684265 0.717931 0.694409 0.693188 0.699393
          0.688926 0.686772 0.692394 0.697342 0.691391 0.705377
          0.699297 0.697632 0.690559 0.675302 0.682202 0.695993
          0.338315 0.67339 0.695063 0.68719 0.674154 0.684882
          0.694227 0.701174 0.685027 0.695012 0.695208 0.697606
          0.702196 0.700304 0.697988 0.691262 0.697496 0.700769
          0.690835 0.700578 0.693292 0.718163 0.711338 0.716678
          0.712175 0.713759 0.711763 0.69696 0.706375 0.712034
          0.704078 0.708444 0.70692 0.716884 0.328659 0.681024
          0.694442 0.693728 0.693137 0.696745 0.698863 0.693247
          0.683687 0.683872 0.689055 0.696234 0.694807 0.70922
          0.704084 0.708324 0.70319 0.705022 0.704877 0.705044
          0.707463 0.711775 0.716683 0.711456 0.702148 0.718498
          0.697821 0.715875 0.713484 0.709943 0.704139 0.706714
          0.714346 0.710688 0.33754 0.692259 0.685643 0.68926
          0.707822 0.701472 0.715178 0.691167 0.693963 0.708203
          0.703499 0.692089 0.709699 0.706641 0.688826 0.690134
          0.689878 0.703166 0.717328 0.691502 0.704791 0.702401
          0.709094 0.710258 0.70073 0.710624 0.708682 0.708722
          0.696697 0.715004 0.711619 0.716043 0.706588 0.715251
          0.324866 0.670005 0.692471 0.69772 0.681763 0.68513
          0.690056 0.690172 0.682094 0.69394 0.710075 0.706387
          0.691938 0.705057 0.697511 0.708282 0.712148 0.700475
          0.720466 0.6961 0.698165 0.691996 0.689344 0.703811
          0.708242 0.68157 0.700974 0.698845 0.689662 0.693071
          0.695844 0.689932 0.696503 0.695631 0.34399 0.683239
          0.691593 0.688217 0.682928 0.691393 0.682197 0.686938
          0.708582 0.69904 0.704456 0.6988 0.698563 0.703896
          0.702995 0.704358 0.712127 0.698338 0.699354 0.711044
          0.70098 0.705384 0.693549 0.692941 0.679577 0.687837
          0.708416 0.699988 0.695154 0.702873 0.694334 0.693025
          0.686265 0.693355 0.328742 0.665615 0.687092 0.70497
          0.687036 0.68793 0.687472 0.696959 0.694536 0.698055
          0.688022 0.689509 0.699854 0.697403 0.700859 0.698365
          0.693504 0.703079 0.706 0.708485 0.693306 0.700143
          0.694252 0.701881 0.705127 0.703581 0.692154 0.700659
          0.704643 0.701047 0.694415 0.68739 0.690795 0.692692
          0.327588 0.688607 0.693177 0.710934 0.684757 0.711517
          0.701692 0.701043 0.704437 0.700499 0.693215 0.705001
          0.69384 0.685112 0.683615 0.713784 0.70239 0.706225
          0.701347 0.703818 0.687816 0.693806 0.700648 0.685182
          0.694949 0.69413 0.680023 0.691045 0.709659 0.695426
          0.685878 0.684908 0.687711 0.679573 0.332753 0.66514
          0.688951 0.689768 0.693571 0.686928 0.688737 0.690244
          0.695332 0.705375 0.684774 0.701281 0.703396 0.691948
          0.687113 0.701588 0.690734 0.711235 0.706262 0.699988
          0.692272 0.687315 0.718002 0.709048 0.700261 0.714596
          0.715268 0.715431 0.720542 0.714048 0.69841 0.714186
          0.715155 0.708033 0.339239 0.697569 0.69452 0.695397
          0.696136 0.695146 0.697619 0.688263 0.697949 0.708637
          0.689947 0.700989 0.710861 0.698566 0.701709 0.704557
          0.689736 0.70192 0.707693 0.698109 0.706719 0.687305
          0.688715 0.704719 0.708307 0.698413 0.712107 0.694902
          0.690594 0.694155 0.692172 0.684308 0.689665 0.688037
          0.329513 0.697605 0.690732 0.694598 0.697252 0.700003
          0.705039 0.697359 0.711708 0.715368 0.706757 0.691637
          0.707815 0.693841 0.701052 0.697534 0.687445 0.698564
          0.70323 0.696411 0.698279 0.698389 0.697523 0.682194
          0.701368 0.68719 0.6867 0.681978 0.697049 0.699363
          0.709039 0.70113 0.677645 0.694084 0.335554 0.685361
          0.698309 0.700813 0.70642 0.695996 0.705101 0.697872
          0.714329 0.702056 0.685199 0.715923 0.699088 0.687358
          0.689271 0.692113 0.695659 0.69857 0.683176 0.715659
          0.694892 0.701799 0.696131 0.707417 0.689732 0.689916
          0.703035 0.703716 0.701617 0.695969 0.687477 0.693191
          0.686303 0.693906 0.347365 0.705189 0.710342 0.69697
          0.681693 0.704235 0.700797 0.708913 0.688156 0.697
          0.70597 0.69265 0.704754 0.695242 0.687027 0.710451
          0.698808 0.692547 0.711121 0.699174 0.705562 0.703857
          0.699539 0.705426 0.703905 0.71965 0.708366 0.712444
          0.714941 0.705717 0.707464 0.700348 0.70767 0.710694
          0.325018 0.692077 0.699608 0.697987 0.69607 0.687505
          0.713685 0.689571 0.699597 0.692178 0.711821 0.70145
          0.694101 0.70761 0.703437 0.68861 0.697524 0.698109
          0.726843 0.696884 0.68401 0.69358 0.696617 0.69279
          0.68949 0.693532 0.691892 0.689888 0.684404 0.698504
          0.700942 0.699375 0.684704 0.689012 0.331218 0.69339
          0.709919 0.696274 0.69408 0.69696 0.697896 0.705226
          0.693195 0.69729 0.699335 0.693292 0.712971 0.692175
          0.686762 0.709318 0.703505 0.701035 0.716783 0.696998
          0.700722 0.709063 0.701919 0.700894 0.707366 0.719861
          0.715524 0.706784 0.710534 0.714915 0.696444 0.705782
          0.712607 0.704212 0.328661 0.655241 0.692884 0.699386
          0.704249 0.693286 0.686662 0.695754 0.698416 0.698425
          0.683908 0.696602 0.68107 0.699885 0.695838 0.694532
          0.694356 0.714439 0.703618 0.699691 0.717407 0.705993
          0.710444 0.713065 0.712159 0.718656 0.719002 0.716881
          0.719294 0.714245 0.704348 0.726517 0.709383 0.699321
          0.322937 0.668371 0.680779 0.674868 0.690734 0.693581
          0.702027 0.687707 0.685881 0.703875 0.713099 0.692851
          0.702042 0.689999 0.696243 0.703507 0.706941 0.717238
          0.699152 0.696779 0.6988 0.693524 0.714252 0.703914
          0.708979 0.714563 0.702423 0.700881 0.709472 0.715112
          0.699701 0.715993 0.715822 0.713592 0.323415 0.683637
          0.687198 0.688103 0.695311 0.682062 0.695386 0.681673
          0.68936 0.716151 0.701538 0.695284 0.695709 0.709605
          0.698973 0.708064 0.70307 0.713725 0.709871 0.695673
          0.716762 0.709016 0.721844 0.709849 0.690118 0.710604
          0.699298 0.706104 0.710198 0.717906 0.694354 0.706533
          0.70868 0.711722 0.348168 0.698047 0.708063 0.700392
          0.694098 0.71971 0.698968 0.696261 0.705168 0.686232
          0.705521 0.687347 0.690738 0.714755 0.690224 0.698759
          0.693945 0.703627 0.711062 0.700037 0.70936 0.701534
          0.704782 0.710507 0.696784 0.702935 0.704942 0.707402
          0.71015 0.702998 0.713661 0.710714 0.702208 0.718235
          0.312644 0.672862 0.691906 0.700731 0.687198 0.681508
          0.698131 0.690545 0.685518 0.683206 0.701016 0.699318
          0.711361 0.694463 0.702194 0.706079 0.683376 0.692656
          0.707298 0.699951 0.685431 0.690308 0.681943 0.689784
          0.700011 0.686892 0.692997 0.692507 0.689774 0.70313
          0.691051 0.699955 0.695573 0.689574 0.347964 0.681656
          0.710527 0.693277 0.692716 0.696757 0.694552 0.695159
          0.685857 0.711592 0.693968 0.700098 0.71488 0.674185
          0.709475 0.702892 0.700937 0.709436 0.69958 0.720216
          0.696136 0.700374 0.693866 0.696952 0.690499 0.699903
          0.704446 0.708298 0.703682 0.679042 0.704164 0.703062
          0.687636 0.686982 0.343005 0.675697 0.697216 0.685423
          0.673424 0.693518 0.686717 0.706702 0.707009 0.688669
          0.681121 0.693105 0.693289 0.703274 0.706825 0.706784
          0.68796 0.715221 0.699622 0.716167 0.697743 0.688392
          0.694009 0.692463 0.69303 0.693217 0.695347 0.685569
          0.699096 0.708659 0.682631 0.691588 0.696698 0.700426
          0.334662 0.662838 0.687473 0.695565 0.699586 0.68386
          0.6944 0.699008 0.695834 0.697496 0.691468 0.701301
          0.705948 0.696943 0.698467 0.703934 0.692877 0.686371
          0.696588 0.704918 0.702333 0.72252 0.711476 0.718477
          0.721871 0.722201 0.717968 0.696481 0.720695 0.701221
          0.7029 0.708689 0.72155 0.692784 0.335394 0.666164
          0.687074 0.702015 0.691766 0.69061 0.680594 0.684057
          0.706075 0.694469 0.703318 0.702391 0.7 0.699035
          0.700258 0.703681 0.68956 0.685291 0.693806 0.700623
          0.699221 0.704498 0.699432 0.699018 0.693414 0.688568
          0.691191 0.691125 0.700735 0.682008 0.692061 0.698203
          0.694834 0.689142 0.340873 0.688777 0.693349 0.683204
          0.687128 0.690698 0.700226 0.687341 0.681512 0.696397
          0.714912 0.685009 0.698201 0.698324 0.693072 0.698119
          0.693551 0.705239 0.708865 0.708989 0.708334 0.682792
          0.696004 0.700162 0.680666 0.695555 0.703028 0.685526
          0.688187 0.69414 0.683415 0.682611 0.695094 0.69184
          0.336498 0.707953 0.698098 0.723661 0.694885 0.686189
          0.689714 0.698096 0.689934 0.716256 0.693159 0.704902
          0.695449 0.704617 0.691845 0.692994 0.6919 0.703317
          0.724364 0.696138 0.70313 0.711988 0.704542 0.712436
          0.715767 0.721012 0.714828 0.709929 0.698442 0.712643
          0.720842 0.710567 0.710687 0.721561 0.332854 0.691918
          0.693317 0.710031 0.702832 0.704746 0.696783 0.692376
          0.704821 0.698314 0.697064 0.691897 0.703388 0.702249
          0.688151 0.696397 0.699614 0.698877 0.712998 0.69939
          0.693481 0.70192 0.703605 0.700387 0.715282 0.688021
          0.694737 0.701646 0.706985 0.695193 0.728032 0.707985
          0.713843 0.708021 0.326086 0.661617 0.69826 0.690934
          0.682461 0.684834 0.689916 0.693696 0.704529 0.699429
          0.688514 0.6962 0.713463 0.69703 0.701556 0.69785
          0.693652 0.703023 0.703445 0.70237 0.7051 0.700124
          0.68844 0.704103 0.700792 0.698928 0.694993 0.707847
          0.698062 0.713359 0.687976 0.704378 0.701534 0.694071
          0.346872 0.693909 0.706845 0.689657 0.702973 0.696908
          0.69053 0.702215 0.697661 0.676914 0.696018 0.712072
          0.707836 0.70296 0.697191 0.701687 0.699368 0.702779
          0.700426 0.715257 0.700351 0.712283 0.701189 0.70728
          0.714571 0.714363 0.698157 0.696996 0.705488 0.703407
          0.694843 0.695195 0.708289 0.704382 0.338964 0.669683
          0.693606 0.692803 0.676439 0.679264 0.691225 0.70785
          0.694512 0.702997 0.711123 0.69248 0.708494 0.705646
          0.701516 0.68387 0.700603 0.707191 0.711276 0.705929
          0.697441 0.697495 0.684073 0.688179 0.695472 0.681924
          0.688011 0.691639 0.68895 0.68733 0.691565 0.684455
          0.693359 0.697788 0.326272 0.684023 0.702514 0.698932
          0.704655 0.694033 0.701039 0.685072 0.692048 0.706207
          0.717823 0.694307 0.693402 0.690872 0.701978 0.701917
          0.714519 0.701183 0.705537 0.713114 0.692294 0.699727
          0.689861 0.697514 0.696621 0.705655 0.696556 0.683885
          0.693411 0.693565 0.683558 0.689685 0.701984 0.672527
          0.33979 0.69358 0.695509 0.693718 0.709521 0.696819
          0.702608 0.698228 0.707399 0.709075 0.692346 0.710131
          0.686184 0.698065 0.699622 0.694299 0.693273 0.695958
          0.70549 0.701385 0.691404 0.689828 0.679608 0.695526
          0.688822 0.690786 0.689731 0.698574 0.684173 0.687143
          0.678711 0.695935 0.685525 0.697332 0.347656 0.70146
          0.693727 0.686608 0.706005 0.707288 0.693668 0.709472
          0.695384 0.695538 0.717928 0.695976 0.698311 0.704862
          0.693477 0.712261 0.710873 0.700025 0.704481 0.703255
          0.692561 0.678335 0.680518 0.692837 0.680152 0.703456
          0.680516 0.698856 0.696474 0.688559 0.699487 0.674964
          0.690761 0.705965 0.330564 0.667342 0.696511 0.706852
          0.686362 0.680419 0.682659 0.707755 0.697673 0.686968
          0.692551 0.710638 0.711131 0.69104 0.711187 0.708458
          0.695783 0.690775 0.697802 0.704606 0.695333 0.710438
          0.727553 0.719936 0.716882 0.715565 0.710355 0.715119
          0.707786 0.698615 0.706867 0.732094 0.710759 0.696198
          0.334145 0.673216 0.686021 0.691063 0.686114 0.677618
          0.678788 0.707311 0.699705 0.701986 0.689532 0.716446
          0.694681 0.708157 0.705222 0.703349 0.700828 0.699458
          0.703146 0.699104 0.696212 0.699728 0.686374 0.689072
          0.699261 0.697317 0.70126 0.694924 0.694301 0.684137
          0.695729 0.683346 0.685755 0.693788 0.319247 0.677175
          0.684908 0.686817 0.693972 0.690405 0.689193 0.692195
          0.677059 0.69366 0.701938 0.69635 0.695914 0.694616
          0.699391 0.706824 0.7012 0.709503 0.723556 0.687733
          0.715351 0.713772 0.714118 0.713732 0.725051 0.710326
          0.71209 0.689239 0.709306 0.706139 0.7284 0.724845
          0.699143 0.717374 0.338663 0.670526 0.695345 0.689672
          0.704535 0.705023 0.680944 0.70723 0.705133 0.701536
          0.698877 0.71183 0.686875 0.703387 0.703925 0.678491
          0.695113 0.704292 0.699142 0.698943 0.69981 0.696332
          0.696758 0.717824 0.699764 0.692458 0.699621 0.704131
          0.68652 0.697213 0.674426 0.692651 0.691291 0.683526
          0.345472 0.677168 0.695861 0.69451 0.693811 0.697694
          0.705356 0.702096 0.707231 0.707842 0.690278 0.696372
          0.717865 0.696156 0.697564 0.71048 0.691437 0.70919
          0.706424 0.693327 0.701333 0.694133 0.69917 0.70368
          0.708797 0.681934 0.69812 0.688355 0.679349 0.700835
          0.706799 0.689497 0.697693 0.682958 0.345753 0.686058
          0.694174 0.704293 0.696824 0.70267 0.686709 0.701491
          0.699513 0.717477 0.682865 0.715563 0.69797 0.692175
          0.71093 0.687523 0.718066 0.697707 0.690885 0.708157
          0.704228 0.690453 0.690761 0.696169 0.689503 0.697747
          0.706572 0.700279 0.693244 0.705153 0.683295 0.689015
          0.695614 0.68333 0.344478 0.686144 0.701844 0.707742
          0.690184 0.690357 0.685627 0.689338 0.677176 0.688572
          0.693563 0.676253 0.704241 0.698253 0.686199 0.690309
          0.707753 0.712253 0.708731 0.690635 0.695365 0.699718
          0.702362 0.710586 0.697667 0.69525 0.702184 0.697685
          0.716941 0.710749 0.705227 0.683832 0.720512 0.718379
          0.338268 0.679817 0.678453 0.67991 0.690076 0.687814
          0.690604 0.695044 0.70797 0.699907 0.702656 0.69757
          0.702926 0.725432 0.687955 0.712047 0.695704 0.700337
          0.702547 0.691107 0.693163 0.697569 0.687353 0.693509
          0.687847 0.690766 0.680075 0.679168 0.685874 0.686244
          0.68133 0.692569 0.696523 0.695419 0.341337 0.711321
          0.687646 0.703159 0.702668 0.688644 0.710041 0.698793
          0.712543 0.696706 0.707976 0.673365 0.7153 0.708596
          0.703069 0.684452 0.69682 0.724458 0.700534 0.697456
          0.681839 0.684013 0.680262 0.696926 0.696948 0.686228
          0.678529 0.690733 0.686481 0.680127 0.699847 0.687423
          0.694718 0.693216 0.344568 0.669236 0.700664 0.700656
          0.686383 0.686204 0.689645 0.707275 0.697283 0.692556
          0.69942 0.704889 0.708038 0.711497 0.694327 0.721656
          0.691018 0.693909 0.698507 0.699993 0.700174 0.704723
          0.713733 0.693806 0.704878 0.690354 0.701356 0.698819
          0.693832 0.705644 0.685787 0.705486 0.70021 0.683747
          0.337071 0.696885 0.701378 0.701995 0.693707 0.702523
          0.706062 0.704222 0.701706 0.699594 0.696757 0.717077
          0.694691 0.699793 0.712407 0.692485 0.711778 0.707021
          0.705653 0.691987 0.70492 0.72675 0.702957 0.71199
          0.709275 0.703414 0.703482 0.698653 0.711178 0.705223
          0.701852 0.720664 0.714631 0.709163 0.318868 0.6571
          0.682768 0.694165 0.691275 0.685193 0.687805 0.684635
          0.693994 0.705367 0.709829 0.704331 0.704046 0.696821
          0.708526 0.704528 0.717632 0.688672 0.701428 0.700347
          0.700017 0.705355 0.70022 0.708675 0.717878 0.707725
          0.701587 0.700339 0.696424 0.703406 0.706369 0.70822
          0.715894 0.698643 0.330365 0.665894 0.701566 0.689882
          0.696277 0.703281 0.705989 0.692008 0.691829 0.693518
          0.692951 0.687825 0.707843 0.704489 0.69927 0.701658
          0.70195 0.703885 0.714191 0.692742 0.710606 0.711251
          0.715612 0.703589 0.713338 0.707925 0.708227 0.701166
          0.706725 0.717256 0.707462 0.700268 0.711348 0.70191
          0.335754 0.691724 0.691519 0.702022 0.712807 0.703259
          0.700974 0.689988 0.688028 0.708039 0.693342 0.70392
          0.704332 0.698098 0.694785 0.690549 0.698574 0.709754
          0.695826 0.698235 0.712293 0.711852 0.692847 0.69861
          0.710631 0.715927 0.703272 0.72862 0.706081 0.708759
          0.705625 0.716241 0.70841 0.7098 0.34328 0.68122
          0.692736 0.701988 0.706325 0.69235 0.702562 0.694847
          0.696149 0.695857 0.693154 0.70327 0.70383 0.69943
          0.700572 0.695209 0.686775 0.705491 0.7056 0.695921
          0.711135 0.715592 0.698516 0.70364 0.704505 0.711928
          0.705226 0.715874 0.707637 0.707729 0.696698 0.704254
          0.704429 0.711706 0.342331 0.67417 0.688593 0.683345
          0.686082 0.68869 0.694975 0.697779 0.687939 0.706728
          0.707875 0.69101 0.706811 0.707273 0.686422 0.702718
          0.68802 0.698382 0.710554 0.705427 0.707042 0.70664
          0.709992 0.712896 0.704042 0.70157 0.695055 0.706229
          0.709614 0.692479 0.712296 0.697175 0.704086 0.715648
          0.340757 0.682882 0.702095 0.702894 0.70105 0.704804
          0.692582 0.715405 0.697823 0.690053 0.695167 0.718225
          0.69017 0.722466 0.700848 0.697424 0.693354 0.709095
          0.697711 0.698255 0.71431 0.710062 0.712394 0.697322
          0.71047 0.704998 0.728913 0.716131 0.700219 0.70196
          0.689643 0.712128 0.708375 0.695973 0.338031 0.666334
          0.674189 0.685704 0.680379 0.711811 0.692133 0.68348
          0.690413 0.699213 0.698457 0.707305 0.688741 0.705961
          0.697428 0.692975 0.710327 0.68272 0.702989 0.703109
          0.699178 0.710901 0.724238 0.699491 0.703117 0.707949
          0.72074 0.704501 0.714318 0.698846 0.699519 0.709156
          0.694636 0.699426 0.337103 0.715053 0.697425 0.709865
          0.688304 0.705047 0.70166 0.700951 0.680977 0.706326
          0.695011 0.71534 0.696599 0.696983 0.690893 0.709951
          0.695885 0.703349 0.7049 0.697713 0.687429 0.704352
          0.712556 0.699699 0.708179 0.718162 0.690602 0.709202
          0.704507 0.698504 0.715452 0.715149 0.719007 0.717477
          0.335865 0.66929 0.698848 0.700424 0.694317 0.685353
          0.690552 0.702694 0.718788 0.699517 0.693093 0.694158
          0.700711 0.69375 0.689147 0.700531 0.695712 0.692152
          0.689618 0.711021 0.691012 0.703659 0.698967 0.708454
          0.704502 0.695392 0.702789 0.696207 0.692107 0.708295
          0.676377 0.703897 0.704702 0.688466 0.340815 0.668386
          0.705338 0.703224 0.696735 0.713594 0.685852 0.707152