<?xml version="1.0"?>
<VTKFile type="PolyData" version="0.1" byte_order="LittleEndian" header_type="UInt32" compressor="vtkZLibDataCompressor">
  <PolyData>
    <Piece NumberOfPoints="8160" NumberOfVerts="0" NumberOfLines="0" NumberOfStrips="0" NumberOfPolys="0">
      <PointData Scalars="Calcium Concentration">
        <DataArray type="Float32" Name="Calcium Concentration" format="ascii" RangeMin="0.1849139928817749" RangeMax="0.7359020113945007">
          0.201535 0.67986 0.687178 0.703467 0.715672 0.701786
          0.691833 0.692643 0.687925 0.703784 0.696058 0.712146
          0.695671 0.696293 0.703216 0.706473 0.690977 0.71228
          0.6962 0.689326 0.706239 0.683212 0.698057 0.677045
          0.678728 0.693641 0.692083 0.701636 0.69381 0.685965
          0.708523 0.697865 0.691847 0.693646 0.210696 0.692659
          0.703086 0.705276 0.71345 0.702475 0.689552 0.686226
          0.711339 0.703666 0.699853 0.700181 0.707976 0.705237
          0.695788 0.706006 0.692619 0.712738 0.695902 0.695437
          0.687996 0.690658 0.686863 0.679196 0.686297 0.69827
          0.6897 0.686612 0.692308 0.693896 0.71166 0.68954
          0.686425 0.691559 0.20354 0.665958 0.690435 0.677816
          0.68584 0.684049 0.686999 0.693807 0.687912 0.709229
          0.686466 0.699038 0.702004 0.695947 0.696229 0.706602
          0.704265 0.717674 0.713144 0.695139 0.710302 0.710635
          0.71201 0.720841 0.704562 0.706159 0.707502 0.719247
          0.709853 0.711027 0.702421 0.70834 0.704263 0.71436
          0.20096 0.687529 0.693549 0.698253 0.702001 0.695538
          0.706397 0.694977 0.711752 0.712105 0.696521 0.699635
          0.701687 0.706313 0.69237 0.701681 0.692081 0.704972
          0.702154 0.696824 0.703247 0.69741 0.689892 0.688512
          0.69522 0.697388 0.696974 0.703343 0.709766 0.699354
          0.698455 0.701282 0.698079 0.69145 0.20047 0.666951
          0.683642 0.68347 0.689001 0.693839 0.687783 0.68095
          0.709127 0.701549 0.703798 0.689277 0.696078 0.701944
          0.688586 0.701002 0.695392 0.704149 0.705714 0.700985
          0.70277 0.690121 0.702789 0.678825 0.692148 0.68616
          0.694263 0.687587 0.692952 0.696238 0.685272 0.699751
          0.706 0.687984 0.209976 0.688399 0.69956 0.702692
          0.705101 0.706145 0.696038 0.711079 0.678289 0.703062
          0.703827 0.703158 0.694046 0.69557 0.693317 0.702124
          0.695377 0.685551 0.701112 0.705832 0.694116 0.716279
          0.699551 0.703912 0.711327 0.727334 0.71116 0.695989
          0.692031 0.699801 0.714532 0.703823 0.69651 0.705582
          0.201576 0.667843 0.69506 0.683993 0.685052 0.696428
          0.673466 0.684103 0.690477 0.722878 0.690388 0.69519
          0.707167 0.697045 0.700478 0.686513 0.697892 0.71702
          0.69729 0.697294 0.691315 0.70831 0.6985 0.705985
          0.704223 0.716618 0.721196 0.715648 0.718776 0.712635
          0.710138 0.718302 0.705799 0.70519 0.198102 0.682205
          0.698105 0.701492 0.687187 0.709748 0.684857 0.679087
          0.683534 0.702285 0.714204 0.699278 0.687709 0.711824
          0.692837 0.715879 0.707386 0.697629 0.694382 0.689796
          0.691337 0.694631 0.691478 0.68308 0.697957 0.688995
          0.698447 0.682735 0.683264 0.68847 0.693857 0.686933
          0.671064 0.693861 0.19499 0.670914 0.67888 0.679611
          0.676726 0.688813 0.689901 0.702982 0.695015 0.700733
          0.705165 0.68905 0.696256 0.705319 0.687757 0.709579
          0.705301 0.700183 0.707949 0.696299 0.70315 0.715421
          0.703099 0.709007 0.696628 0.718119 0.698412 0.709982
          0.704345 0.706714 0.713048 0.714716 0.7128 0.718118
          0.201515 0.681122 0.690474 0.7015 0.703323 0.714782
          0.696809 0.68917 0.711335 0.697998 0.701055 0.692587
          0.694617 0.700975 0.703669 0.700858 0.699772 0.699634
          0.718209 0.689435 0.707337 0.713124 0.696093 0.71191
          0.703614 0.703147 0.699971 0.709744 0.710216 0.699577
          0.715542 0.695955 0.71243 0.713475 0.19608 0.689279
          0.699146 0.712601 0.689034 0.712905 0.688663 0.702916
          0.698645 0.704294 0.697639 0.695168 0.701934 0.697501
          0.685109 0.705286 0.700585 0.689767 0.700555 0.706835
          0.70885 0.70988 0.707267 0.713323 0.708966 0.690736
          0.69794 0.698345 0.718882 0.706589 0.720771 0.707864
          0.707317 0.707298 0.189906 0.672415 0.678831 0.69021
          0.684314 0.68622 0.682571 0.698432 0.699314 0.704801
          0.70373 0.70702 0.694267 0.694894 0.699756 0.707594
          0.698895 0.692791 0.706473 0.69063 0.690697 0.686298
          0.711423 0.681663 0.683933 0.701175 0.693538 0.692111
          0.680988 0.691444 0.69506 0.696607 0.694719 0.693891
          0.201888 0.686208 0.707387 0.690183 0.689376 0.697355
          0.709326 0.694983 0.71111 0.698079 0.699327 0.695293
          0.707562 0.691602 0.693184 0.701418 0.700172 0.69384
          0.708334 0.694421 0.689889 0.686167 0.703877 0.689525
          0.686771 0.695066 0.696668 0.691899 0.700065 0.692846
          0.694717 0.686776 0.698613 0.69528 0.209006 0.688822
          0.686447 0.704618 0.709337 0.689979 0.698798 0.689104
          0.700019 0.712238 0.702148 0.690218 0.696529 0.71261
          0.707879 0.696907 0.696235 0.695071 0.71188 0.701095
          0.690484 0.69257 0.674993 0.68266 0.681011 0.693556
          0.689991 0.694702 0.692665 0.693383 0.700868 0.688539
          0.682364 0.704054 0.197272 0.650974 0.689869 0.697886
          0.691845 0.682211 0.691294 0.699122 0.685379 0.698551
          0.695363 0.706118 0.699122 0.700605 0.687388 0.690017
          0.70718 0.693904 0.700973 0.696677 0.707976 0.710688
          0.713554 0.713604 0.705619 0.718647 0.709688 0.698941
          0.720462 0.719155 0.7054 0.721735 0.709674 0.705712
          0.199504 0.699053 0.700236 0.688128 0.71637 0.704156
          0.692402 0.696399 0.709242 0.702629 0.694963 0.702137
          0.708594 0.701253 0.694445 0.703215 0.700793 0.697881
          0.69206 0.696012 0.691681 0.685616 0.700504 0.682688
          0.692231 0.697203 0.695346 0.688748 0.685419 0.6916
          0.689994 0.693702 0.68422 0.698479 0.190176 0.664218
          0.697664 0.687551 0.693971 0.68606 0.694223 0.686831
          0.695081 0.682698 0.706545 0.705692 0.702697 0.702573
          0.6964 0.703494 0.694157 0.714372 0.706089 0.700234
          0.697332 0.700998 0.703211 0.68776 0.689919 0.693276
          0.686484 0.702862 0.702459 0.707711 0.713547 0.708424
          0.684733 0.702632 0.193722 0.680512 0.680851 0.671278
          0.689788 0.699738 0.688574 0.705798 0.68719 0.708248
          0.702013 0.707839 0.702246 0.696159 0.703131 0.693006
          0.697109 0.701757 0.698192 0.698766 0.690705 0.712642
          0.711581 0.704838 0.708379 0.730804 0.704011 0.704078
          0.709133 0.709579 0.707852 0.698221 0.719161 0.721748
          0.195476 0.669404 0.689688 0.690221 0.690258 0.682825
          0.694001 0.696991 0.7027 0.706773 0.700153 0.687967
          0.697262 0.698126 0.694542 0.696775 0.70541 0.710978
          0.698003 0.706921 0.692472 0.692171 0.694332 0.6871
          0.69259 0.700069 0.689041 0.681039 0.685997 0.695816
          0.704478 0.684539 0.698412 0.703559 0.206907 0.681719
          0.700144 0.711456 0.691572 0.696119 0.70172 0.694288
          0.703743 0.70836 0.695695 0.704726 0.697368 0.689052
          0.696191 0.698787 0.697854 0.700704 0.715112 0.695989
          0.687707 0.701573 0.685244 0.682612 0.697006 0.687979
          0.687197 0.694324 0.700582 0.689445 0.683346 0.691941
          0.683532 0.68893 0.194811 0.689045 0.68538 0.691076
          0.697645 0.697071 0.702642 0.711905 0.687598 0.684733
          0.709592 0.691461 0.697698 0.702857 0.683156 0.688581
          0.706519 0.703117 0.708241 0.694935 0.689032 0.701656
          0.678307 0.680168 0.6847 0.689161 0.69434 0.690694
          0.700767 0.695076 0.693028 0.693135 0.700024 0.697681
          0.207789 0.676834 0.694108 0.692356 0.699033 0.697952
          0.703644 0.70029 0.688982 0.710107 0.696256 0.691668
          0.710508 0.696065 0.686245 0.69448 0.692147 0.709334
          0.694951 0.704861 0.700364 0.705612 0.708197 0.708958
          0.709231 0.712664 0.720524 0.694261 0.718495 0.707806
          0.725558 0.702008 0.697633 0.706577 0.204385 0.701049
          0.682612 0.705293 0.702668 0.699153 0.706435 0.710252
          0.691166 0.700977 0.700334 0.694298 0.705675 0.693289
          0.687864 0.696674 0.704372 0.705643 0.698523 0.701836
          0.710894 0.714615 0.69957 0.709906 0.713898 0.708593
          0.70232 0.704006 0.69796 0.698115 0.719132 0.716017
          0.725507 0.710873 0.202282 0.697272 0.707531 0.687662
          0.708175 0.697111 0.709323 0.696705 0.699562 0.698624
          0.697933 0.697846 0.696785 0.710994 0.692344 0.698132
          0.706139 0.71302 0.697248 0.685042 0.709589 0.701901
          0.711682 0.710305 0.710781 0.713419 0.714093 0.713502
          0.718501 0.707171 0.701403 0.705742 0.701353 0.714421
          0.193372 0.67582 0.696087 0.698352 0.707024 0.6862
          0.715598 0.699888 0.706063 0.707493 0.701944 0.701088
          0.688516 0.707314 0.694664 0.700151 0.706956 0.68707
          0.698969 0.696611 0.700228 0.683434 0.668979 0.699389
          0.682874 0.694811 0.701345 0.69296 0.697497 0.704261
          0.687058 0.680607 0.683894 0.690862 0.209725 0.669717
          0.703271 0.711843 0.70455 0.706415 0.701745 0.698089
          0.692268 0.70284 0.689253 0.70585 0.703767 0.7068
          0.702207 0.703212 0.695623 0.700539 0.696308 0.704441
          0.70216 0.689202 0.681825 0.681917 0.68215 0.685831
          0.702873 0.695364 0.700043 0.705236 0.692747 0.688301
          0.699298 0.693527 0.208938 0.690959 0.683323 0.703828
          0.70861 0.706712 0.703763 0.692292 0.689964 0.68627
          0.722177 0.690954 0.700542 0.700055 0.695197 0.686689
          0.710195 0.725439 0.683407 0.693684 0.708825 0.697355
          0.672957 0.702299 0.691755 0.698514 0.684152 0.695085
          0.677509 0.685133 0.686874 0.6818 0.690633 0.688268
          0.211633 0.678709 0.693747 0.69093 0.683637 0.689552
          0.696258 0.688216 0.684372 0.706964 0.695334 0.679141
          0.689993 0.680996 0.68328 0.703808 0.699419 0.684916
          0.706892 0.688549 0.708569 0.698229 0.688787 0.689935
          0.686329 0.69906 0.693128 0.686936 0.683489 0.686436
          0.705304 0.695032 0.675874 0.701331 0.197087 0.684853
          0.69293 0.693351 0.698664 0.692488 0.702718 0.709608
          0.691468 0.726553 0.688913 0.679661 0.709599 0.69793
          0.707079 0.696365 0.693938 0.70054 0.689403 0.704931
          0.700332 0.687065 0.677641 0.681226 0.695096 0.686994
          0.686697 0.692807 0.712416 0.702332 0.688954 0.704108
          0.697872 0.685885 0.199081 0.676759 0.692616 0.690985
          0.701513 0.693102 0.703501 0.692172 0.694281 0.711353
          0.702261 0.693042 0.704511 0.702512 0.687045 0.723824
          0.694271 0.693403 0.711077 0.68858 0.697542 0.691773
          0.695577 0.694445 0.687945 0.695014 0.68556 0.699633
          0.696024 0.697072 0.692805 0.681695 0.677308 0.697294
          0.195055 0.666473 0.691988 0.689128 0.683943 0.692771
          0.683972 0.700349 0.690472 0.69824 0.704104 0.705148
          0.708635 0.700665 0.699152 0.698032 0.694828 0.692188
          0.690802 0.692848 0.693936 0.715923 0.709236 0.717862
          0.715474 0.721981 0.720137 0.697422 0.712153 0.710156
          0.692233 0.706756 0.700673 0.710122 0.202248 0.678125
          0.703403 0.693069 0.694108 0.698193 0.703118 0.685408
          0.685232 0.685333 0.696456 0.687194 0.690628 0.708416
          0.69266 0.710223 0.696261 0.701213 0.701216 0.693319
          0.702904 0.703553 0.73016 0.704517 0.699234 0.716657
          0.692542 0.710775 0.71259 0.707893 0.7115 0.710128
          0.706777 0.712915 0.197537 0.677569 0.687952 0.69338
          0.708012 0.703304 0.709571 0.695038 0.689903 0.712506
          0.693388 0.684806 0.717212 0.700587 0.688442 0.696877
          0.693927 0.699951 0.71294 0.689245 0.703251 0.702235
          0.703795 0.710022 0.708769 0.706414 0.707088 0.709619
          0.700475 0.716644 0.720476 0.712875 0.712682 0.711818
          0.198013 0.666786 0.686356 0.705005 0.678958 0.685502
          0.687999 0.693173 0.683894 0.685966 0.712185 0.711676
          0.694496 0.698987 0.698484 0.713057 0.706302 0.697632
          0.702664 0.693099 0.707804 0.696613 0.688534 0.714082
          0.707304 0.681073 0.691016 0.699591 0.68524 0.693056
          0.69314 0.692088 0.705102 0.697817 0.209733 0.678886
          0.687289 0.684266 0.67941 0.688624 0.683337 0.685828
          0.704667 0.704016 0.702339 0.710908 0.699443 0.703946
          0.698303 0.704784 0.706165 0.70098 0.699423 0.718743
          0.69926 0.701532 0.692672 0.686477 0.682838 0.68266
          0.698856 0.698529 0.68979 0.7053 0.690867 0.698097
          0.687269 0.692702 0.202064 0.658801 0.681432 0.698451
          0.6992 0.696929 0.677777 0.689645 0.700777 0.694964
          0.687521 0.690568 0.697136 0.69754 0.714266 0.70856
          0.704791 0.71175 0.705551 0.708713 0.690111 0.703566
          0.699685 0.696675 0.713984 0.701005 0.702766 0.704464
          0.702689 0.701647 0.693902 0.683259 0.683758 0.686303
          0.193597 0.680344 0.685499 0.703298 0.696556 0.707248
          0.701794 0.697566 0.705848 0.701704 0.689265 0.703405
          0.698234 0.693242 0.688168 0.705008 0.69238 0.698953
          0.694414 0.708347 0.694741 0.691223 0.700388 0.683625
          0.687533 0.696805 0.686174 0.689037 0.70118 0.699603
          0.685053 0.679752 0.689384 0.678588 0.200312 0.655663
          0.683111 0.689501 0.700295 0.689236 0.683642 0.692496
          0.700216 0.694116 0.701237 0.694792 0.702088 0.698585
          0.685886 0.703473 0.692826 0.696727 0.693563 0.698642
          0.689437 0.698345 0.709215 0.703764 0.709565 0.711739
          0.716966 0.714704 0.71504 0.716099 0.694173 0.720518
          0.715227 0.711175 0.208547 0.690695 0.687957 0.696132
          0.700759 0.692686 0.694379 0.692322 0.695798 0.708016
          0.686779 0.70442 0.69661 0.691961 0.698489 0.705058
          0.697478 0.702213 0.71523 0.696296 0.705849 0.69647
          0.692155 0.701412 0.709682 0.702363 0.710931 0.690334
          0.680605 0.698489 0.696853 0.682585 0.689222 0.689612
          0.202071 0.690913 0.698271 0.696596 0.690629 0.701042
          0.694301 0.695319 0.704487 0.709917 0.700451 0.689826
          0.72021 0.702493 0.692099 0.699287 0.696726 0.70359
          0.69284 0.689573 0.708385 0.700163 0.695458 0.686732
          0.692784 0.684036 0.685701 0.687672 0.694871 0.699705
          0.715501 0.696126 0.67387 0.697714 0.196544 0.678735
          0.700255 0.709073 0.703264 0.700068 0.705547 0.698075
          0.709514 0.696153 0.69716 0.713062 0.70114 0.691202
          0.696932 0.695115 0.700748 0.703808 0.687483 0.711077
          0.694362 0.697264 0.692133 0.699606 0.692099 0.695099
          0.700027 0.697007 0.700524 0.699847 0.678332 0.699382
          0.689539 0.695372 0.203172 0.686686 0.715241 0.694132
          0.681354 0.700766 0.697548 0.718317 0.691808 0.699052
          0.706569 0.689334 0.69962 0.689265 0.695085 0.715012
          0.69738 0.698432 0.701815 0.699118 0.698654 0.699993
          0.709552 0.700703 0.708249 0.722654 0.708417 0.713534
          0.7032 0.709332 0.709317 0.710985 0.703053 0.71247
          0.194576 0.678611 0.694552 0.700282 0.693669 0.69715
          0.708161 0.686636 0.69661 0.702234 0.717336 0.693894
          0.695432 0.699887 0.703584 0.68961 0.702337 0.693998
          0.708194 0.696976 0.686149 0.689851 0.701023 0.693576
          0.684885 0.694422 0.688454 0.68481 0.687731 0.687615
          0.690495 0.700595 0.67647 0.686273 0.184914 0.687243
          0.696461 0.688133 0.702336 0.700508 0.700665 0.702863
          0.696758 0.702737 0.701105 0.691698 0.709009 0.697471
          0.69283 0.704002 0.703221 0.699835 0.710249 0.690817
          0.701025 0.697784 0.704902 0.704556 0.710948 0.713767
          0.707693 0.697448 0.706816 0.719197 0.693801 0.702588
          0.714117 0.702811 0.195149 0.650379 0.686688 0.695642
          0.696609 0.691304 0.688125 0.705139 0.697952 0.701041
          0.688095 0.700924 0.682404 0.705771 0.695235 0.698565
          0.696109 0.713546 0.705639 0.699282 0.703724 0.71074
          0.715623 0.713831 0.715503 0.709667 0.714845 0.728978
          0.720496 0.710646 0.696106 0.727498 0.713256 0.709794
          0.198452 0.659735 0.682555 0.678583 0.685769 0.699292
          0.706427 0.693084 0.679372 0.703535 0.721091 0.698801
          0.690926 0.698936 0.697776 0.70553 0.700611 0.710106
          0.691214 0.700336 0.707296 0.704293 0.717728 0.708166
          0.709799 0.71581 0.706511 0.707413 0.704299 0.722669
          0.705359 0.7106 0.715121 0.712253 0.198979 0.670895
          0.679424 0.687624 0.691872 0.676469 0.696768 0.680044
          0.698895 0.719635 0.69604 0.699196 0.702399 0.700199
          0.696913 0.704749 0.705648 0.711882 0.706077 0.687791
          0.714121 0.711516 0.716899 0.704994 0.690527 0.692735
          0.697002 0.708841 0.705584 0.720794 0.697372 0.717342
          0.710316 0.712086 0.213721 0.698812 0.704989 0.688136
          0.691905 0.705807 0.69862 0.691777 0.698932 0.701346
          0.699265 0.671476 0.691396 0.70898 0.678491 0.711596
          0.705111 0.701478 0.708958 0.708936 0.70398 0.705762
          0.718311 0.709936 0.689924 0.702779 0.708421 0.712262
          0.708558 0.709849 0.719716 0.711908 0.697709 0.719195
          0.186961 0.66692 0.685989 0.695509 0.685765 0.690203
          0.696579 0.690492 0.682455 0.684796 0.705075 0.698497
          0.70475 0.700739 0.692994 0.702344 0.692278 0.693246
          0.699825 0.699514 0.692828 0.687972 0.67668 0.696298
          0.704471 0.69115 0.692857 0.694751 0.682384 0.702941
          0.692389 0.695731 0.696928 0.697858 0.207733 0.67237
          0.700261 0.69921 0.688504 0.693862 0.700695 0.703531
          0.695552 0.714648 0.695359 0.699778 0.710115 0.678087
          0.714625 0.70239 0.697272 0.70273 0.692316 0.710188
          0.697817 0.699153 0.695795 0.695123 0.691091 0.694853
          0.702407 0.707869 0.701343 0.68 0.687713 0.69227
          0.690351 0.687014 0.207218 0.669984 0.698631 0.686525
          0.677582 0.683303 0.67895 0.701233 0.711502 0.695249
          0.687177 0.696165 0.689383 0.698611 0.716016 0.704549
          0.689384 0.697513 0.699798 0.704495 0.69807 0.684006
          0.692954 0.68855 0.694253 0.693727 0.692148 0.693607
          0.704326 0.713164 0.679325 0.694588 0.705475 0.704249
          0.202191 0.657055 0.686797 0.694649 0.691196 0.679753
          0.693865 0.701964 0.696492 0.680524 0.69665 0.702262
          0.706165 0.698683 0.701282 0.713449 0.678852 0.687213
          0.711047 0.700877 0.691031 0.724748 0.71016 0.721854
          0.72137 0.720716 0.713158 0.701951 0.704643 0.697919
          0.697914 0.708139 0.71863 0.692435 0.202173 0.655357
          0.687894 0.701244 0.690326 0.679971 0.676352 0.694049
          0.702787 0.693681 0.702936 0.705658 0.698206 0.709753
          0.702081 0.70395 0.694441 0.694962 0.701939 0.700127
          0.698021 0.705299 0.698023 0.695344 0.710539 0.682887
          0.696487 0.6967 0.690229 0.684828 0.69194 0.707059
          0.698345 0.699888 0.204726 0.681452 0.696941 0.684267
          0.683676 0.692835 0.703129 0.690568 0.679829 0.702241
          0.720534 0.687132 0.705665 0.694742 0.686379 0.701484
          0.693072 0.696923 0.709233 0.709923 0.703288 0.689977
          0.699409 0.708771 0.681312 0.69496 0.698277 0.68549
          0.679799 0.693056 0.685282 0.688804 0.700664 0.689075
          0.200926 0.703813 0.710372 0.724075 0.689622 0.696325
          0.69407 0.70354 0.701937 0.710782 0.689575 0.693537
          0.702391 0.704593 0.681659 0.69119 0.698706 0.708395
          0.71239 0.691051 0.705363 0.696193 0.704188 0.706248
          0.717647 0.709955 0.710633 0.707046 0.695451 0.710625
          0.719894 0.708333 0.708928 0.717993 0.204879 0.690859
          0.696236 0.701777 0.699375 0.695083 0.696195 0.689109
          0.693788 0.707175 0.693196 0.687247 0.701348 0.691574
          0.685019 0.698015 0.710448 0.702464 0.706727 0.701546
          0.696675 0.701835 0.705468 0.703103 0.713176 0.695717
          0.695187 0.700665 0.706455 0.703285 0.720713 0.713108
          0.712966 0.698425 0.202994 0.653413 0.693775 0.693672
          0.68717 0.676562 0.682948 0.692789 0.699086 0.701592
          0.696861 0.691164 0.712392 0.692338 0.70469 0.706872
          0.689318 0.70321 0.702887 0.694883 0.696526 0.692644
          0.692625 0.697645 0.701514 0.7065 0.692647 0.705255
          0.697221 0.712076 0.684222 0.719451 0.700719 0.693274
          0.210443 0.69318 0.708026 0.698608 0.707678 0.707498
          0.703377 0.701568 0.698299 0.678022 0.699264 0.705971
          0.705275 0.707322 0.69626 0.696242 0.700672 0.700652
          0.702115 0.710701 0.702178 0.711373 0.700569 0.701503
          0.708843 0.703706 0.691492 0.702025 0.707941 0.70739
          0.706826 0.701962 0.714661 0.703544 0.203612 0.664448
          0.677933 0.683903 0.685185 0.681535 0.691297 0.696147
          0.706406 0.714669 0.7057 0.699021 0.701944 0.700304
          0.709451 0.688998 0.712762 0.704195 0.70574 0.701223
          0.70032 0.704274 0.681329 0.684595 0.697246 0.683681
          0.68493 0.687422 0.690299 0.688971 0.695544 0.686269
          0.687178 0.696116 0.202347 0.678517 0.700375 0.698032
          0.704476 0.701853 0.693394 0.687775 0.689365 0.690139
          0.722628 0.699395 0.694449 0.694231 0.708739 0.700017
          0.715644 0.695594 0.690058 0.698464 0.691174 0.693106
          0.692452 0.690648 0.698596 0.703756 0.696356 0.691306
          0.689277 0.697856 0.68528 0.683057 0.69411 0.679799
          0.205816 0.695068 0.700135 0.690722 0.700049 0.698713
          0.692989 0.701671 0.70059 0.703743 0.700455 0.707808
          0.694318 0.700668 0.703627 0.690765 0.69606 0.695606
          0.711077 0.696618 0.698861 0.690121 0.682492 0.699839
          0.690612 0.69129 0.696887 0.693009 0.675141 0.686422
          0.681025 0.686012 0.688233 0.69614 0.215688 0.701196
          0.704275 0.692139 0.708501 0.713765 0.68428 0.709292
          0.700419 0.692107 0.714229 0.692653 0.701395 0.711752
          0.696152 0.715191 0.705883 0.698022 0.69785 0.707176
          0.690809 0.685991 0.680852 0.683357 0.679242 0.703194
          0.67677 0.688216 0.691721 0.687853 0.702882 0.67631
          0.691839 0.709227 0.192225 0.66598 0.68571 0.702718
          0.680307 0.685616 0.680374 0.707083 0.695758 0.683228
          0.69607 0.717803 0.704831 0.696114 0.707471 0.701306
          0.692627 0.690999 0.698349 0.704604 0.690587 0.714638
          0.722259 0.707592 0.718897 0.70202 0.710917 0.713332
          0.708685 0.704121 0.698763 0.726307 0.7152 0.705154
          0.205196 0.666947 0.684896 0.688453 0.686032 0.6812
          0.679541 0.71536 0.698457 0.697457 0.69528 0.70972
          0.696257 0.710121 0.706266 0.705224 0.691705 0.693882
          0.704606 0.699086 0.699797 0.695643 0.690553 0.676835
          0.694533 0.689428 0.695773 0.696726 0.691364 0.693616
          0.695198 0.686104 0.693879 0.696006 0.198496 0.674311
          0.694016 0.690869 0.700189 0.68311 0.68966 0.691248
          0.688467 0.69407 0.700809 0.698813 0.697986 0.695131
          0.703411 0.691956 0.69151 0.69576 0.707378 0.689298
          0.709677 0.707257 0.712774 0.709874 0.723392 0.705674
          0.705587 0.697382 0.70492 0.71194 0.72489 0.720382
          0.702426 0.716988 0.205875 0.658935 0.690559 0.696597
          0.707157 0.703536 0.690672 0.714028 0.712442 0.70022
          0.701904 0.701875 0.697824 0.701392 0.706976 0.688327
          0.687254 0.708286 0.697325 0.696508 0.693689 0.699344
          0.701804 0.715405 0.703794 0.696614 0.692441 0.697885
          0.692683 0.701738 0.683541 0.682348 0.688744 0.681676
          0.214024 0.679673 0.696569 0.70201 0.696322 0.698926
          0.699503 0.701288 0.707552 0.697113 0.700631 0.705603
          0.710753 0.705793 0.702051 0.713306 0.689933 0.693209
          0.701636 0.692682 0.705571 0.689166 0.705518 0.692485
          0.697272 0.681296 0.701052 0.678789 0.678753 0.696024
          0.701294 0.686611 0.705311 0.68755 0.211981 0.66739
          0.699893 0.699007 0.690028 0.694858 0.692772 0.706777
          0.700505 0.710741 0.689947 0.706145 0.696488 0.693703
          0.710229 0.693996 0.708414 0.70858 0.69883 0.7168
          0.706536 0.692653 0.688697 0.698207 0.701028 0.694607
          0.712316 0.696674 0.688165 0.705639 0.679606 0.70264
          0.694996 0.683697 0.207356 0.682546 0.71036 0.705099
          0.69193 0.693473 0.700168 0.699894 0.684932 0.697059
          0.694085 0.678285 0.713685 0.70425 0.688076 0.692883
          0.712279 0.708513 0.699521 0.69497 0.704773 0.694628
          0.697152 0.70878 0.703049 0.697732 0.706537 0.703352
          0.714859 0.710537 0.699452 0.683534 0.720794 0.728625
          0.205054 0.675924 0.679119 0.675841 0.687108 0.692364
          0.687725 0.687318 0.702739 0.696327 0.716872 0.704745
          0.704387 0.707256 0.690387 0.711364 0.699983 0.701765
          0.702262 0.690278 0.700958 0.694221 0.68869 0.688887
          0.681643 0.690218 0.694866 0.684556 0.694692 0.690604
          0.679689 0.695195 0.692019 0.686614 0.215221 0.696031
          0.694054 0.704475 0.694764 0.690336 0.705776 0.693449
          0.708872 0.697739 0.709221 0.679157 0.726502 0.714606
          0.688127 0.696998 0.707989 0.719619 0.7023 0.697573
          0.689002 0.690807 0.677173 0.697925 0.698702 0.686804
          0.678871 0.688269 0.682617 0.690536 0.696007 0.690786
          0.701562 0.70332 0.205347 0.661721 0.703904 0.697005
          0.687948 0.692391 0.686545 0.702329 0.704285 0.68597
          0.70074 0.702557 0.700978 0.707141 0.69387 0.71687
          0.6863 0.683159 0.705347 0.701767 0.697898 0.698029
          0.71698 0.699189 0.712795 0.690159 0.700169 0.706993
          0.700136 0.706634 0.691228 0.701166 0.699317 0.69102
          0.20173 0.689999 0.700545 0.699872 0.690027 0.702061
          0.70843 0.713709 0.704452 0.709544 0.689581 0.70352
          0.694251 0.701246 0.710778 0.705691 0.69447 0.702883
          0.708933 0.685807 0.703414 0.713337 0.705654 0.71559
          0.710888 0.705542 0.698695 0.698654 0.709874 0.709298
          0.692789 0.717422 0.717119 0.710112 0.188614 0.658442
          0.68698 0.696567 0.695769 0.699605 0.681496 0.683386
          0.696232 0.707345 0.702744 0.702937 0.69251 0.698206
          0.703028 0.698015 0.712951 0.689315 0.702279 0.694343
          0.713844 0.708317 0.708633 0.708799 0.710845 0.706611
          0.697565 0.702615 0.693969 0.710968 0.70359 0.714209
          0.711012 0.708907 0.19826 0.659713 0.695664 0.693056
          0.690788 0.703158 0.700127 0.704093 0.685179 0.683037
          0.692505 0.699229 0.703737 0.703905 0.704304 0.696765
          0.696343 0.692979 0.700937 0.69594 0.708261 0.716174
          0.724326 0.709772 0.716347 0.712663 0.704614 0.703251
          0.700721 0.72191 0.702006 0.701222 0.709327 0.703849
          0.194277 0.686125 0.698315 0.694023 0.715918 0.698239
          0.695749 0.693105 0.692569 0.698028 0.692389 0.694729
          0.696319 0.691635 0.700908 0.695387 0.6902 0.700283
          0.695219 0.690578 0.708839 0.710319 0.695933 0.693041
          0.70344 0.706727 0.713163 0.72752 0.702358 0.706071
          0.701528 0.713512 0.713056 0.707589 0.203462 0.671216
          0.686751 0.710916 0.700166 0.692527 0.69549 0.695298
          0.701707 0.703352 0.69434 0.70533 0.703398 0.697891
          0.693405 0.693482 0.68961 0.70127 0.7059 0.698737
          0.718357 0.70269 0.69408 0.70399 0.709266 0.713469
          0.697767 0.71259 0.711544 0.711605 0.696815 0.69427
          0.702411 0.710063 0.211905 0.668552 0.685709 0.680975
          0.682359 0.690585 0.695789 0.689947 0.700957 0.700462
          0.706961 0.685154 0.713588 0.69972 0.679708 0.705284
          0.697936 0.696399 0.703849 0.701681 0.704799 0.703355
          0.710437 0.709375 0.701267 0.699242 0.698792 0.701039
          0.702708 0.683938 0.718323 0.698548 0.702357 0.708164
          0.20257 0.685576 0.705947 0.697996 0.696642 0.703556
          0.691126 0.717819 0.691916 0.687367 0.695373 0.718517
          0.696612 0.720803 0.697477 0.695102 0.695845 0.698234
          0.701701 0.68893 0.709988 0.707366 0.706149 0.69306
          0.713942 0.702875 0.721137 0.719699 0.695144 0.706281
          0.691836 0.706838 0.71231 0.698486 0.207878 0.664762
          0.679603 0.691507 0.690982 0.709593 0.692411 0.683919
          0.697948 0.691661 0.696948 0.698369 0.695652 0.706855
          0.690363 0.693616 0.711927 0.678155 0.71226 0.69901
          0.697121 0.704194 0.722865 0.697847 0.702374 0.707485
          0.713648 0.704747 0.719376 0.700835 0.702774 0.69896
          0.703497 0.709459 0.212132 0.687623 0.69311 0.698222
          0.682919 0.717951 0.70553 0.700597 0.688985 0.709306
          0.699545 0.7232 0.698716 0.694498 0.686713 0.702172
          0.697678 0.700404 0.703018 0.69912 0.691783 0.702254
          0.717533 0.70377 0.702895 0.709111 0.700076 0.697413
          0.700862 0.708366 0.713787 0.711324 0.71738 0.722639
          0.202261 0.664041 0.704228 0.691774 0.699952 0.688607
          0.688366 0.703437 0.719532 0.697723 0.698878 0.693278
          0.700631 0.694367 0.693654 0.704427 0.68619 0.685951
          0.693435 0.709655 0.690512 0.705147 0.700113 0.707938
          0.706344 0.699229 0.694081 0.700992 0.698301 0.71519
          0.675401 0.702604 0.704875 0.690288 0.205347 0.665987
          0.708862 0.698864 0.705709 0.722851 0.693198 0.705163