<?xml version="1.0"?>
<VTKFile type="PolyData" version="0.1" byte_order="LittleEndian" header_type="UInt32" compressor="vtkZLibDataCompressor">
  <PolyData>
    <Piece NumberOfPoints="7920" NumberOfVerts="0" NumberOfLines="0" NumberOfStrips="0" NumberOfPolys="0">
      <PointData Scalars="Calcium Concentration">
        <DataArray type="Float32" Name="Calcium Concentration" format="ascii" RangeMin="0.6265720129013062" RangeMax="0.7420110106468201">
          0.663447 0.698841 0.702345 0.707962 0.700476 0.704247
          0.710443 0.698448 0.705895 0.699979 0.706311 0.694677
          0.70079 0.699595 0.700932 0.70253 0.710708 0.694698
          0.689558 0.71711 0.683989 0.690951 0.683357 0.685507
          0.684931 0.6862 0.699873 0.687276 0.693483 0.706123
          0.707313 0.699264 0.68454 0.677204 0.703041 0.696156
          0.703679 0.697354 0.701204 0.69833 0.701964 0.695502
          0.696502 0.692831 0.704466 0.703288 0.694571 0.709945
          0.701748 0.701537 0.710845 0.687533 0.700685 0.688639
          0.693234 0.673292 0.678131 0.684742 0.680893 0.693976
          0.689565 0.692539 0.706709 0.678275 0.689285 0.703112
          0.639563 0.686431 0.689936 0.688949 0.688382 0.689056
          0.687992 0.695704 0.712371 0.69262 0.697644 0.691779
          0.695375 0.699169 0.719939 0.704809 0.720429 0.702473
          0.701255 0.712181 0.707571 0.717648 0.717598 0.693779
          0.714824 0.704808 0.714713 0.702087 0.708475 0.707474
          0.716275 0.714423 0.703154 0.665651 0.693565 0.69404
          0.709577 0.698996 0.700916 0.710586 0.708959 0.702199
          0.697913 0.691604 0.706092 0.709433 0.699971 0.702075
          0.700589 0.702054 0.704468 0.695936 0.708688 0.69986
          0.687502 0.698811 0.693136 0.691925 0.7002 0.706699
          0.694607 0.692019 0.701224 0.696452 0.697215 0.689673
          0.636962 0.690163 0.683508 0.686613 0.680412 0.683352
          0.682306 0.708618 0.699384 0.692479 0.707576 0.699693
          0.706676 0.696351 0.706892 0.685998 0.7011 0.702908
          0.695569 0.706106 0.694032 0.696096 0.682755 0.69901
          0.681108 0.690464 0.687614 0.691276 0.679661 0.697509
          0.691917 0.700485 0.695715 0.665105 0.702925 0.709795
          0.70716 0.704666 0.690719 0.700887 0.689819 0.703697
          0.707556 0.701651 0.702987 0.699995 0.694329 0.70686
          0.695911 0.693481 0.686405 0.702246 0.689616 0.708802
          0.697393 0.700053 0.69853 0.713684 0.700137 0.704281
          0.708047 0.699697 0.721219 0.715663 0.697051 0.70913
          0.644692 0.676499 0.679161 0.690152 0.691154 0.69703
          0.687121 0.689836 0.723196 0.697879 0.69106 0.702253
          0.694381 0.701913 0.687909 0.701343 0.697683 0.695622
          0.691548 0.698336 0.705513 0.700488 0.702297 0.704119
          0.714227 0.721814 0.709476 0.727098 0.716946 0.713229
          0.715856 0.720335 0.7144 0.653028 0.68348 0.694359
          0.678557 0.704798 0.698182 0.683586 0.685789 0.705661
          0.711494 0.689577 0.696099 0.697977 0.692629 0.712232
          0.696299 0.701896 0.695951 0.68854 0.699548 0.69813
          0.685641 0.676622 0.688441 0.696648 0.6991 0.693504
          0.685994 0.686462 0.688026 0.690132 0.682321 0.69464
          0.663179 0.68812 0.687555 0.678083 0.680864 0.68954
          0.682771 0.697293 0.705357 0.698651 0.694878 0.695025
          0.703609 0.690838 0.692611 0.693969 0.695736 0.69794
          0.699515 0.699267 0.694022 0.698219 0.710183 0.691556
          0.717907 0.712181 0.712448 0.712407 0.714062 0.714496
          0.708304 0.703731 0.715453 0.65505 0.704371 0.699138
          0.711971 0.705389 0.691167 0.69755 0.69803 0.685238
          0.690131 0.699634 0.688805 0.698344 0.699327 0.708123
          0.70415 0.697463 0.703195 0.674524 0.704909 0.703875
          0.691331 0.696934 0.705843 0.705883 0.711685 0.701886
          0.702933 0.692166 0.712337 0.703028 0.713826 0.708541
          0.66469 0.705486 0.69874 0.695493 0.69625 0.688832
          0.709081 0.698219 0.695884 0.698844 0.692442 0.696096
          0.69838 0.703747 0.696356 0.70591 0.683663 0.697431
          0.698097 0.69449 0.708499 0.708757 0.720132 0.71124
          0.694665 0.713783 0.70522 0.705659 0.711766 0.723011
          0.701846 0.710763 0.703056 0.649012 0.677255 0.687274
          0.684178 0.680903 0.683233 0.686786 0.698268 0.69721
          0.698835 0.702492 0.689212 0.699775 0.69739 0.715138
          0.691502 0.695532 0.696273 0.686091 0.701987 0.68562
          0.70677 0.693371 0.687479 0.680717 0.700253 0.687093
          0.683146 0.694259 0.69932 0.69227 0.701034 0.699993
          0.659716 0.698528 0.691629 0.70287 0.694788 0.705754
          0.702973 0.70286 0.694812 0.709071 0.694573 0.704886
          0.698051 0.703488 0.693413 0.70029 0.705862 0.705316
          0.68018 0.706265 0.683714 0.689598 0.684014 0.689553
          0.698589 0.708002 0.698351 0.699413 0.687866 0.701146
          0.702872 0.699391 0.706108 0.669026 0.700948 0.70715
          0.712724 0.694094 0.700852 0.686988 0.717044 0.707083
          0.698488 0.69648 0.69373 0.703201 0.705067 0.713117
          0.702033 0.684936 0.694874 0.695181 0.693905 0.694267
          0.688551 0.685026 0.672707 0.685066 0.696577 0.696833
          0.688599 0.684354 0.69001 0.686658 0.68558 0.693751
          0.643667 0.690597 0.697927 0.693148 0.678095 0.693723
          0.695736 0.691221 0.695756 0.701329 0.714924 0.707738
          0.696501 0.701765 0.695949 0.711928 0.699784 0.701532
          0.705369 0.703328 0.700927 0.712418 0.713604 0.709572
          0.714571 0.701133 0.713073 0.717642 0.718776 0.716381
          0.709303 0.70748 0.704089 0.65828 0.702771 0.689497
          0.709288 0.693195 0.701706 0.703495 0.719733 0.712703
          0.690112 0.708505 0.698461 0.689438 0.697614 0.712194
          0.70458 0.705184 0.710851 0.70193 0.700531 0.683919
          0.691702 0.688165 0.693959 0.688315 0.68234 0.684657
          0.693564 0.696442 0.690763 0.69395 0.683528 0.691953
          0.644343 0.688511 0.686169 0.681156 0.690523 0.688665
          0.690835 0.692668 0.691925 0.701337 0.698095 0.695511
          0.709636 0.682264 0.694395 0.702174 0.701435 0.721026
          0.697241 0.700681 0.696062 0.693205 0.685415 0.688572
          0.684406 0.685655 0.695618 0.707844 0.69623 0.710075
          0.705394 0.685339 0.707301 0.66088 0.694996 0.671679
          0.688959 0.710215 0.683649 0.690564 0.68865 0.704744
          0.700179 0.693717 0.699152 0.698853 0.704592 0.689544
          0.691327 0.697886 0.700806 0.703229 0.693965 0.700777
          0.697654 0.699232 0.707385 0.726375 0.709506 0.695468
          0.714615 0.709877 0.716282 0.713045 0.718591 0.71376
          0.64456 0.693379 0.687183 0.685774 0.68738 0.689514
          0.685913 0.707644 0.700468 0.700835 0.701848 0.690853
          0.694931 0.700541 0.701006 0.694585 0.709791 0.694293
          0.695616 0.701858 0.689717 0.687691 0.688305 0.680882
          0.706186 0.685732 0.688723 0.692156 0.698691 0.695626
          0.694655 0.700896 0.702086 0.663022 0.699185 0.698821
          0.688583 0.705071 0.702139 0.686421 0.685383 0.711273
          0.704908 0.699113 0.701451 0.694454 0.691605 0.701526
          0.703507 0.706513 0.700181 0.697514 0.686471 0.700831
          0.678024 0.682214 0.693364 0.684619 0.693688 0.677343
          0.702391 0.686543 0.687646 0.691394 0.679646 0.686088
          0.664063 0.697295 0.705747 0.68934 0.70445 0.686943
          0.707544 0.690462 0.69097 0.699684 0.699578 0.697397
          0.703217 0.693041 0.69472 0.708 0.705133 0.71457
          0.70146 0.703211 0.689702 0.678808 0.686397 0.685964
          0.697701 0.685883 0.690082 0.695665 0.695734 0.69867
          0.694941 0.701362 0.691312 0.659893 0.706658 0.692009
          0.702291 0.698298 0.706367 0.709789 0.691043 0.70696
          0.699597 0.685211 0.716152 0.688597 0.698243 0.711432
          0.690762 0.705941 0.69127 0.709945 0.700136 0.712088
          0.710735 0.716913 0.696888 0.714209 0.707483 0.690837
          0.72016 0.710362 0.725136 0.700453 0.705528 0.708865
          0.681174 0.688363 0.704052 0.706467 0.698376 0.698859
          0.698705 0.702025 0.708078 0.700344 0.694767 0.699956
          0.708717 0.694989 0.677923 0.723901 0.698848 0.700298
          0.699474 0.700487 0.715276 0.6923 0.715552 0.697271
          0.7072 0.709531 0.708225 0.703219 0.709325 0.728871
          0.720798 0.726283 0.706627 0.665742 0.707437 0.694577
          0.694203 0.695329 0.699505 0.709704 0.693112 0.704263
          0.697556 0.707747 0.701023 0.717048 0.69936 0.702603
          0.707614 0.695192 0.703083 0.684259 0.705044 0.715035
          0.721334 0.705814 0.711395 0.712768 0.710616 0.7172
          0.719074 0.705944 0.708347 0.716574 0.713023 0.70017
          0.660212 0.701008 0.686057 0.708757 0.698513 0.705823
          0.696322 0.702511 0.706313 0.699896 0.697349 0.677602
          0.701237 0.687795 0.694682 0.704384 0.694924 0.704445
          0.696086 0.702018 0.68415 0.676739 0.703549 0.669916
          0.698742 0.696766 0.695917 0.689756 0.692795 0.697995
          0.686797 0.690581 0.68574 0.653255 0.698304 0.702741
          0.697199 0.707251 0.69619 0.704647 0.692161 0.711435
          0.696096 0.710011 0.694446 0.70208 0.701165 0.699376
          0.695847 0.703545 0.702066 0.713323 0.701858 0.691411
          0.692256 0.6865 0.68541 0.689679 0.699223 0.692682
          0.702852 0.701609 0.693819 0.683687 0.698274 0.696054
          0.664351 0.694182 0.69976 0.709505 0.713118 0.693337
          0.691838 0.695929 0.698762 0.70992 0.692671 0.699009
          0.687013 0.707667 0.690674 0.70884 0.708174 0.68398
          0.695315 0.704466 0.697894 0.687907 0.693241 0.681046
          0.697226 0.68754 0.68641 0.684389 0.67601 0.693013
          0.68374 0.693668 0.682392 0.656871 0.691542 0.689033
          0.682569 0.69146 0.693158 0.695712 0.692283 0.712991
          0.69601 0.69445 0.697182 0.689977 0.698594 0.695905
          0.697058 0.705339 0.687658 0.694258 0.706246 0.690392
          0.687441 0.685111 0.687506 0.688532 0.680678 0.68732
          0.694988 0.685995 0.715498 0.702335 0.677863 0.704453
          0.659009 0.708499 0.692128 0.685162 0.706824 0.697737
          0.711628 0.703965 0.710193 0.704374 0.689393 0.696451
          0.701865 0.694026 0.693217 0.69661 0.697323 0.702512
          0.699876 0.706565 0.684229 0.689719 0.681366 0.697426
          0.688591 0.678279 0.685951 0.704731 0.699677 0.688064
          0.699228 0.684573 0.683805 0.66686 0.699822 0.700828
          0.700557 0.694456 0.699058 0.697734 0.69774 0.706249
          0.693598 0.699941 0.7024 0.698645 0.676612 0.709299
          0.703904 0.700464 0.712396 0.69473 0.699762 0.694684
          0.688802 0.686179 0.688509 0.693736 0.685608 0.708589
          0.702589 0.694239 0.695204 0.682847 0.6805 0.684157
          0.648259 0.689142 0.683801 0.693968 0.687958 0.682561
          0.685569 0.695484 0.683374 0.711203 0.704722 0.694465
          0.699339 0.702178 0.710737 0.694314 0.707596 0.697858
          0.709722 0.70207 0.717671 0.708246 0.706135 0.711573
          0.716274 0.713454 0.708621 0.715 0.716192 0.700206
          0.698302 0.699965 0.720204 0.64451 0.691946 0.687552
          0.682546 0.694874 0.697446 0.694571 0.68829 0.696546
          0.686413 0.687435 0.692032 0.696692 0.686617 0.694971
          0.688957 0.713724 0.696513 0.692339 0.697577 0.704709
          0.719684 0.711453 0.68441 0.700734 0.692406 0.712664
          0.709978 0.710068 0.720386 0.711845 0.715088 0.705425
          0.670099 0.702758 0.694104 0.703548 0.70439 0.706341
          0.698662 0.683927 0.714137 0.699877 0.696385 0.702157
          0.700066 0.69687 0.705642 0.700438 0.697353 0.707564
          0.696495 0.695614 0.704646 0.70474 0.710058 0.698949
          0.702557 0.705982 0.704903 0.703483 0.704207 0.712645
          0.71779 0.710694 0.70327 0.64754 0.687516 0.695913
          0.689118 0.683589 0.696943 0.691373 0.69828 0.683623
          0.71514 0.702158 0.689251 0.695732 0.697036 0.704107
          0.697922 0.700428 0.699599 0.682762 0.713379 0.6948
          0.688459 0.702576 0.701137 0.686918 0.703735 0.693592
          0.696507 0.694626 0.693802 0.681459 0.701437 0.699867
          0.657395 0.695967 0.688961 0.677975 0.683125 0.681963
          0.68906 0.687202 0.703574 0.68922 0.700479 0.695434
          0.702123 0.703183 0.693618 0.697852 0.680431 0.705479
          0.698403 0.710942 0.700287 0.68909 0.687208 0.685429
          0.692121 0.6952 0.695475 0.681275 0.704667 0.681812
          0.690245 0.685925 0.685655 0.630812 0.678874 0.696731
          0.705 0.698714 0.683146 0.703288 0.70125 0.689544
          0.687509 0.704263 0.698124 0.710927 0.713868 0.709421
          0.700751 0.707407 0.698675 0.703262 0.693995 0.696961
          0.693402 0.699441 0.71282 0.709158 0.694582 0.706139
          0.688744 0.702434 0.695123 0.68329 0.689479 0.690396
          0.649088 0.694769 0.701383 0.70203 0.697275 0.698693
          0.70135 0.696185 0.701205 0.704012 0.707883 0.688642
          0.701035 0.70556 0.699568 0.691322 0.692875 0.696705
          0.70926 0.706131 0.677554 0.69416 0.681363 0.686526
          0.697496 0.682779 0.676391 0.694392 0.694928 0.69427
          0.689677 0.692193 0.683724 0.626572 0.678466 0.696273
          0.704951 0.68364 0.696857 0.689722 0.705449 0.703867
          0.689626 0.684031 0.709477 0.698924 0.698885 0.696668
          0.687981 0.696389 0.695158 0.703315 0.703827 0.699196
          0.704532 0.711319 0.713562 0.710414 0.712635 0.723973
          0.720706 0.712444 0.703307 0.717934 0.716511 0.720568
          0.668919 0.69923 0.698873 0.702277 0.688279 0.69952
          0.701013 0.696291 0.707758 0.695953 0.707876 0.697725
          0.687591 0.703513 0.688415 0.706138 0.701049 0.713962
          0.70294 0.707081 0.697397 0.702172 0.704441 0.70927
          0.701345 0.702554 0.691504 0.686444 0.690818 0.702691
          0.675716 0.703979 0.685001 0.666891 0.697143 0.705984
          0.695714 0.70079 0.694924 0.688422 0.701585 0.686979
          0.705838 0.700624 0.706517 0.699848 0.686554 0.713849
          0.696774 0.707124 0.69733 0.701672 0.713609 0.692105
          0.688274 0.684636 0.696313 0.683252 0.690953 0.690656
          0.688171 0.692658 0.710528 0.708743 0.691093 0.68926
          0.650014 0.70947 0.703875 0.710719 0.692684 0.694626
          0.702006 0.701311 0.702492 0.705994 0.705125 0.696822
          0.707788 0.711032 0.701598 0.711054 0.703132 0.699653
          0.695859 0.702263 0.69244 0.693021 0.696866 0.702718
          0.688405 0.712745 0.678777 0.695195 0.695047 0.686349
          0.685067 0.684075 0.694778 0.664389 0.71195 0.69786
          0.692331 0.696362 0.706074 0.702399 0.6971 0.707636
          0.701865 0.704759 0.708898 0.702444 0.68535 0.707579
          0.705005 0.716491 0.696074 0.690562 0.688189 0.714902
          0.711755 0.698185 0.715328 0.719334 0.706755 0.715971
          0.712379 0.710546 0.713215 0.706845 0.703199 0.717859
          0.658391 0.692197 0.691567 0.701564 0.702325 0.698713
          0.691304 0.698752 0.705735 0.725275 0.699273 0.705515
          0.687839 0.708477 0.691768 0.704448 0.714155 0.689815
          0.692879 0.685994 0.687297 0.6887 0.687677 0.68341
          0.706722 0.693477 0.68385 0.682999 0.689366 0.694849
          0.699906 0.691469 0.674702 0.662958 0.694626 0.692181
          0.690491 0.700952 0.699951 0.698701 0.69355 0.699376
          0.698546 0.701558 0.698409 0.710666 0.688039 0.707297
          0.700552 0.700498 0.703593 0.687488 0.69769 0.713603
          0.705017 0.707046 0.705314 0.716003 0.70863 0.696007
          0.712187 0.710583 0.699019 0.704243 0.702003 0.709855
          0.642941 0.681196 0.708147 0.694181 0.690146 0.696123
          0.699 0.702008 0.699612 0.697591 0.689399 0.684921
          0.712031 0.707477 0.705947 0.693804 0.701441 0.694162
          0.698475 0.70208 0.70607 0.713111 0.711548 0.731422
          0.706772 0.712162 0.72507 0.717114 0.717388 0.702612
          0.708886 0.703006 0.700037 0.635212 0.679216 0.684501
          0.690147 0.694189 0.698471 0.691846 0.688149 0.693708
          0.719883 0.703243 0.687684 0.7064 0.691469 0.717171
          0.689921 0.707686 0.680599 0.705374 0.696105 0.711177
          0.710047 0.71154 0.696077 0.716486 0.71957 0.706245
          0.697063 0.716339 0.707391 0.709548 0.710942 0.721552
          0.649581 0.683778 0.686866 0.687578 0.683881 0.676722
          0.690895 0.696418 0.710806 0.698012 0.696292 0.699951
          0.698843 0.706724 0.694787 0.705691 0.706208 0.699276
          0.691701 0.703475 0.70519 0.719253 0.712697 0.698418
          0.705774 0.700445 0.703672 0.706966 0.711696 0.706966
          0.707811 0.708247 0.718032 0.679619 0.695705 0.688661
          0.705883 0.704887 0.691747 0.687308 0.701074 0.701349
          0.695975 0.69654 0.698333 0.703256 0.701001 0.698346
          0.702936 0.706294 0.707644 0.702253 0.703238 0.702761
          0.729097 0.710823 0.6987 0.711777 0.706037 0.715177
          0.69996 0.712349 0.718508 0.710868 0.703167 0.71577
          0.647721 0.682146 0.705574 0.69356 0.696566 0.702948
          0.674803 0.678972 0.68703 0.715428 0.713551 0.708296
          0.701825 0.688184 0.712754 0.691304 0.699179 0.702691
          0.697089 0.694805 0.702915 0.67645 0.698949 0.697789
          0.685506 0.694675 0.69378 0.680011 0.683075 0.688537
          0.700554 0.694901 0.693155 0.658792 0.696974 0.698159
          0.698515 0.694817 0.699922 0.714782 0.709632 0.699725
          0.685132 0.693043 0.694053 0.701847 0.713604 0.705511
          0.693493 0.691864 0.69463 0.694418 0.695207 0.707329
          0.694404 0.68577 0.687082 0.693176 0.701062 0.70774
          0.702448 0.699019 0.691623 0.690318 0.681222 0.691466
          0.654978 0.692694 0.691525 0.695289 0.691474 0.685969
          0.695161 0.706797 0.687181 0.686138 0.69013 0.682026
          0.705557 0.711623 0.704256 0.691868 0.698019 0.701772
          0.702018 0.694235 0.689308 0.693958 0.70209 0.696138
          0.697299 0.687435 0.697685 0.689694 0.709576 0.685292
          0.69553 0.697683 0.70954 0.638732 0.692317 0.689512
          0.712755 0.682232 0.6943 0.696347 0.691381 0.685078
          0.70032 0.711087 0.69281 0.706413 0.71756 0.714578
          0.685646 0.697805 0.714021 0.702257 0.691726 0.714651
          0.707913 0.707359 0.71751 0.715831 0.706004 0.708812
          0.712749 0.714905 0.69083 0.702987 0.712824 0.699531
          0.634275 0.683434 0.70346 0.695206 0.677564 0.677008
          0.686953 0.705804 0.692342 0.703594 0.700653 0.70377
          0.715745 0.70499 0.696587 0.698495 0.700172 0.694812
          0.700789 0.704232 0.700809 0.695128 0.699429 0.703744
          0.683368 0.683373 0.702695 0.690345 0.684125 0.700599
          0.699525 0.691344 0.706087 0.658504 0.695792 0.68638
          0.692692 0.68333 0.70295 0.68076 0.668341 0.711009
          0.702597 0.698609 0.701673 0.697418 0.693945 0.706816
          0.697717 0.695476 0.692145 0.693108 0.705522 0.696057
          0.682525 0.696582 0.675161 0.700264 0.700392 0.693969
          0.684207 0.688814 0.697227 0.699529 0.707175 0.686833
          0.668446 0.706645 0.707618 0.684667 0.707307 0.705262
          0.716095 0.69495 0.720572 0.701948 0.701741 0.699004
          0.703499 0.686194 0.708146 0.706075 0.704319 0.686124
          0.704881 0.700372 0.700682 0.704758 0.699039 0.712947
          0.717635 0.714647 0.702327 0.70316 0.715715 0.72422
          0.712911 0.716429 0.720297 0.671732 0.706651 0.699011
          0.695843 0.705566 0.68883 0.695124 0.694762 0.716643
          0.696533 0.699563 0.709269 0.689896 0.6955 0.688771
          0.715342 0.70258 0.687656 0.686639 0.693814 0.705897
          0.706103 0.695424 0.707603 0.685548 0.707066 0.718096
          0.710376 0.713924 0.718067 0.711831 0.718034 0.703669
          0.63112 0.687613 0.701044 0.693437 0.686333 0.695937
          0.686506 0.696283 0.688654 0.701002 0.690895 0.706843
          0.704393 0.70182 0.707674 0.701417 0.698943 0.707577
          0.69675 0.699838 0.700716 0.690527 0.690021 0.711199
          0.706761 0.703833 0.711414 0.699317 0.704728 0.686862
          0.704759 0.701202 0.701517 0.671658 0.704971 0.713833
          0.698856 0.699145 0.712702 0.706347 0.712827 0.689446
          0.709369 0.697325 0.691496 0.699281 0.688662 0.70889
          0.708093 0.68564 0.688285 0.703339 0.687275 0.706235
          0.702683 0.712777 0.705503 0.709396 0.697783 0.699128
          0.713602 0.699614 0.705272 0.709033 0.715566 0.712547
          0.64912 0.691409 0.685788 0.681536 0.682693 0.699031
          0.68682 0.704327 0.7093 0.698257 0.707438 0.697603
          0.696241 0.699773 0.689071 0.717972 0.700031 0.697111
          0.699494 0.694816 0.711238 0.688637 0.686405 0.686254
          0.682286 0.679647 0.692653 0.693163 0.687865 0.694676
          0.687494 0.690402 0.693587 0.652654 0.711571 0.695624
          0.698768 0.713918 0.683193 0.687218 0.70503 0.702133
          0.706188 0.703049 0.701813 0.709653 0.694578 0.686756
          0.703802 0.696363 0.703539 0.705824 0.695929 0.686277
          0.693271 0.69341 0.691072 0.694156 0.695029 0.693925
          0.685575 0.690796 0.687706 0.684325 0.690275 0.687641
          0.663671 0.699997 0.698799 0.696885 0.704678 0.688019
          0.687824 0.70004 0.701044 0.704912 0.697649 0.700646
          0.699567 0.694588 0.697572 0.695739 0.6916 0.700953
          0.706412 0.701758 0.696242 0.700276 0.686976 0.694335
          0.693349 0.694217 0.694223 0.679065 0.682821 0.67801
          0.68504 0.700569 0.688684 0.682236 0.70459 0.698327
          0.694342 0.711378 0.677557 0.696277 0.710643 0.694473
          0.701679 0.703276 0.692676 0.705475 0.69176 0.702587
          0.704222 0.703611 0.689419 0.706006 0.697411 0.684978
          0.686466 0.678056 0.68871 0.697808 0.694978 0.693088
          0.688202 0.70178 0.702768 0.699034 0.677277 0.685421
          0.644927 0.684448 0.703549 0.692242 0.680776 0.690964
          0.694779 0.685181 0.683917 0.683458 0.711999 0.689631
          0.706661 0.686385 0.691315 0.695526 0.705904 0.703995
          0.706892 0.694093 0.708056 0.707727 0.715285 0.708165
          0.706551 0.721039 0.71319 0.733842 0.708085 0.705529
          0.721824 0.716844 0.710652 0.646079 0.682709 0.684874
          0.683217 0.667784 0.689012 0.703998 0.707652 0.692316
          0.69787 0.710465 0.686904 0.703154 0.715768 0.689502
          0.707327 0.692534 0.707086 0.69818 0.707148 0.690727
          0.679208 0.681928 0.693896 0.690885 0.698776 0.692238
          0.699283 0.690093 0.683525 0.698287 0.699654 0.69483
          0.653158 0.682499 0.683287 0.702594 0.689459 0.685237
          0.679737 0.683532 0.69369 0.696595 0.700659 0.707339
          0.714874 0.690075 0.707757 0.699232 0.701633 0.704675
          0.691466 0.698672 0.71892 0.713943 0.702696 0.734591
          0.715957 0.69838 0.707455 0.695373 0.716804 0.724428
          0.717518 0.709621 0.70141 0.633714 0.693223 0.704468
          0.705666 0.702892 0.71124 0.718945 0.701764 0.682646
          0.713031 0.693284 0.710382 0.714222 0.703044 0.705669
          0.692552 0.710035 0.713048 0.71053 0.702416 0.705206
          0.703804 0.702571 0.705723 0.705333 0.695901 0.691579
          0.691934 0.691047 0.68629 0.669323 0.690395 0.689025
          0.657314 0.696506 0.698969 0.699705 0.69887 0.700538
          0.707503 0.703478 0.691799 0.69888 0.702196 0.700536
          0.706304 0.694223 0.71617 0.68981 0.696545 0.701882
          0.699043 0.694546 0.685688 0.7086 0.692041 0.687735
          0.689327 0.705926 0.68217 0.695811 0.691528 0.690712
          0.689655 0.701984 0.688815 0.649738 0.710126 0.696499
          0.689713 0.699272 0.700738 0.705568 0.701908 0.694009
          0.691821 0.707963 0.694231 0.70591 0.718423 0.686028
          0.704594 0.707885 0.694738 0.709289 0.716558 0.690996
          0.682542 0.703427 0.699055 0.699349 0.688258 0.695885
          0.686445 0.705047 0.694877 0.690729 0.69417 0.691096
          0.653525 0.699051 0.700537 0.689218 0.690733 0.693326
          0.684516 0.687894 0.689318 0.690952 0.688764 0.702366
          0.705406 0.699865 0.691633 0.705812 0.705649 0.687359
          0.703699 0.6923 0.695864 0.711332 0.708639 0.7027
          0.700773 0.710244 0.704519 0.71912 0.713065 0.709074
          0.693755 0.718551 0.711103 0.646463 0.677077 0.683771
          0.687332 0.696072 0.698806 0.692852 0.694026 0.70339
          0.708915 0.70735 0.690061 0.701292 0.684604 0.689925
          0.701874 0.694978 0.704685 0.697778 0.703171 0.693148
          0.689442 0.692528 0.683507 0.69523 0.702935 0.675375
          0.691973 0.696378 0.693798 0.700862 0.698906 0.683476
          0.671971 0.707853 0.68716 0.702909 0.697689 0.695085
          0.697836 0.693788 0.699117 0.713362 0.68468 0.7152
          0.700914 0.696371 0.703908 0.697604 0.703729 0.684115
          0.690976 0.689392 0.686067 0.682082 0.693947 0.693093
          0.694548 0.678788 0.707437 0.683736 0.686409 0.694449
          0.692415 0.700138 0.69209 0.648019 0.699495 0.69376
          0.709707 0.694898 0.693062 0.699858 0.70124 0.683422
          0.704621 0.701055 0.698416 0.704908 0.700428 0.709363
          0.689367 0.692262 0.701552 0.712505 0.704005 0.699736
          0.711107 0.705714 0.707207 0.700833 0.699988 0.705461
          0.70675 0.694155 0.701425 0.694309 0.69293 0.695345
          0.667759 0.702956 0.696875 0.690094 0.703064 0.689206
          0.706886 0.702838 0.699545 0.688042 0.699042 0.703563
          0.69677 0.717673 0.711867 0.684438 0.702523 0.698332
          0.678823 0.694836 0.710071 0.704832 0.709494 0.714347
          0.715591 0.70203 0.691462 0.716089 0.712887 0.701331
          0.712921 0.714785 0.718778 0.639182 0.680276 0.689297
          0.685152 0.692908 0.681635 0.683718 0.695913 0.705682
          0.690067 0.703591 0.686904 0.694732 0.704039 0.70076
          0.709293 0.694592 0.710931 0.68968 0.704165 0.720354
          0.717642 0.713745 0.713407 0.712834 0.695556 0.701631
          0.701421 0.708491 0.709979 0.711398 0.712727 0.714171
          0.640998 0.694839 0.685229 0.677604 0.68877 0.70142
          0.698307 0.686727 0.681399 0.691478 0.699076 0.702951
          0.692914 0.702043 0.703381 0.684735 0.692513 0.692689
          0.701311 0.700553 0.721949 0.71741 0.719468 0.719414
          0.714048 0.703593 0.726613 0.695162 0.696353 0.710116
          0.705716 0.715049 0.713334 0.672101 0.70212 0.684254
          0.697486 0.692076 0.698705 0.697204 0.702166 0.705406
          0.70338 0.69477 0.693976 0.697812 0.705632 0.694855
          0.694133 0.710472 0.701272 0.706303 0.697922 0.717374
          0.708641 0.706368 0.698259 0.709584 0.708162 0.72032
          0.702683 0.705558 0.699761 0.711112 0.723708 0.697766
          0.655727 0.693169 0.714919 0.701854 0.696766 0.693013
          0.701574 0.716865 0.709202 0.675039 0.700409 0.699819
          0.710213 0.687817 0.698765 0.699294 0.704971 0.693115
          0.707787 0.707376 0.700011 0.701781 0.699617 0.708957
          0.704265 0.711745 0.709754 0.720298 0.711465 0.700023
          0.696759 0.713904 0.694999 0.649682 0.689557 0.681202
          0.679462 0.689462 0.686144 0.686642 0.712123 0.69847
          0.704966 0.680699 0.699141 0.702831 0.686492 0.700782
          0.69346 0.695969 0.693724 0.702194 0.71062 0.703589
          0.696737 0.715496 0.694333 0.696682 0.707863 0.701094
          0.704997 0.687382 0.709838 0.702548 0.701277 0.721878
          0.667489 0.69863 0.71637 0.690486 0.697804 0.702473
          0.722739 0.700999 0.687807 0.696896 0.701912 0.695156
          0.706678 0.695988 0.696182 0.700235 0.693569 0.703567
          0.70091 0.69489 0.705386 0.705742 0.700441 0.710616
          0.702932 0.710258 0.716566 0.699826 0.707249 0.697295
          0.701092 0.710886 0.707871 0.651886 0.679744 0.689698
          0.691185 0.692738 0.701003 0.68564 0.693022 0.684147
          0.694505 0.696254 0.687247 0.705263 0.711199 0.691688
          0.703257 0.699584 0.697464 0.704653 0.690616 0.703745
          0.712328 0.703134 0.694076 0.714085 0.723967 0.710854
          0.714653 0.711184 0.71147 0.691417 0.706102 0.701286
          0.670282 0.712091 0.699896 0.691427 0.719507 0.709204
          0.705173 0.700834 0.697296 0.697918 0.722296 0.701985
          0.690199 0.68875 0.70098 0.693905 0.7017 0.705637
          0.70138 0.682898 0.695672 0.709107 0.713431 0.699778
          0.717597 0.706618 0.702958 0.712503 0.695329 0.708145
          0.715662 0.710754 0.715266 0.633375 0.691147 0.683819
          0.709471 0.691316 0.699565 0.697784 0.702896 0.701307
          0.69086 0.697945 0.689024 0.699388 0.686977 0.69849
          0.695035 0.693435 0.708218 0.693194 0.693131 0.693379
          0.69973 0.707171 0.705305 0.706116 0.690593 0.703864
          0.70629 0.704883 0.673669 0.69162 0.701183 0.701374
          0.659928 0.706776 0.692365 0.707162 0.698713 0.691828
          0.708208 0.704739 0.700726 0.706093 0.71235 0.683522
          0.713344 0.690116 0.709525 0.705516 0.706188 0.706026
          0.708967 0.702281 0.684509 0.711042 0.692994 0.696014
          0.694628 0.692427 0.692182 0.694523 0.684949 0.691998
          0.683804 0.69513 0.697897 0.680459 0.696507 0.695859
          0.70769 0.691932 0.702191 0.698958 0.701943 0.710309
          0.702123 0.689541 0.708759 0.682809 0.698139 0.698089
          0.695616 0.7037 0.693875 0.692075 0.704947 0.70074
          0.689685 0.699224 0.677489 0.688688 0.703748 0.687913
          0.683721 0.704583 0.703187 0.69105 0.702339 0.682718
          0.681167 0.706701 0.701942 0.687167 0.701798 0.703566
          0.705892 0.688334 0.704664 0.699926 0.699596 0.722391
          0.685394 0.693917 0.689004 0.716673 0.709027 0.698634
          0.699465 0.700836 0.686823 0.704799 0.697477 0.686733