<?xml version="1.0"?>
<VTKFile type="PolyData" version="0.1" byte_order="LittleEndian" header_type="UInt32" compressor="vtkZLibDataCompressor">
  <PolyData>
    <Piece NumberOfPoints="7920" NumberOfVerts="0" NumberOfLines="0" NumberOfStrips="0" NumberOfPolys="0">
      <PointData Scalars="Calcium Concentration">
        <DataArray type="Float32" Name="Calcium Concentration" format="ascii" RangeMin="0.623199999332428" RangeMax="0.7369359731674194">
          0.6606 0.701904 0.699395 0.705212 0.703556 0.707559
          0.705937 0.697345 0.707205 0.696958 0.701516 0.69747
          0.703884 0.698555 0.704098 0.699568 0.712278 0.695443
          0.692095 0.714874 0.686297 0.68949 0.685615 0.683777
          0.687221 0.688548 0.698891 0.691728 0.69418 0.707489
          0.708728 0.702315 0.684785 0.675031 0.700115 0.69705
          0.702751 0.700295 0.702307 0.695191 0.701034 0.694239
          0.697381 0.693516 0.701537 0.702441 0.695351 0.713543
          0.696724 0.704694 0.710414 0.685831 0.703807 0.687107
          0.691927 0.675042 0.677999 0.687082 0.68096 0.696691
          0.68594 0.693162 0.701928 0.680204 0.687738 0.698172
          0.637581 0.686757 0.690461 0.689401 0.690924 0.685376
          0.686366 0.696502 0.709938 0.695338 0.696452 0.69244
          0.689994 0.700176 0.722021 0.704005 0.724555 0.703689
          0.702251 0.70768 0.707037 0.717549 0.719626 0.69051
          0.718724 0.706098 0.714442 0.703196 0.707868 0.7048
          0.718076 0.712014 0.70237 0.662814 0.690252 0.688636
          0.707012 0.702068 0.699933 0.7101 0.706363 0.701352
          0.698828 0.692163 0.705426 0.710933 0.694882 0.705196
          0.699597 0.703134 0.705701 0.698828 0.705955 0.702948
          0.687858 0.695701 0.693831 0.692575 0.705346 0.703999
          0.69334 0.694703 0.70235 0.693145 0.698081 0.694274
          0.636748 0.688747 0.685725 0.689052 0.678428 0.685515
          0.682473 0.712197 0.696255 0.697239 0.709016 0.700802
          0.71213 0.695176 0.70837 0.686294 0.698053 0.702021
          0.694352 0.701285 0.692697 0.696889 0.684911 0.697921
          0.683274 0.689028 0.683862 0.691861 0.681758 0.700503
          0.690449 0.701508 0.696452 0.666402 0.702059 0.707175
          0.706512 0.703822 0.691318 0.695833 0.690367 0.704937
          0.706913 0.700746 0.70207 0.69892 0.690955 0.710314
          0.694703 0.694157 0.682617 0.705411 0.687981 0.70833
          0.700339 0.703122 0.699521 0.709309 0.701143 0.705573
          0.711475 0.700685 0.719241 0.717521 0.69793 0.710625
          0.640836 0.678409 0.677088 0.690582 0.687603 0.693779
          0.687542 0.688321 0.721338 0.698816 0.69172 0.701375
          0.697112 0.703094 0.690395 0.700456 0.696534 0.692301
          0.690015 0.695221 0.702744 0.705601 0.703405 0.705397
          0.707823 0.719961 0.704831 0.725337 0.720917 0.710814
          0.71567 0.720329 0.712061 0.651687 0.681575 0.697117
          0.682624 0.701925 0.699169 0.685868 0.68403 0.706961
          0.709067 0.690053 0.694932 0.694744 0.691226 0.711861
          0.697213 0.703028 0.698857 0.690978 0.702611 0.69698
          0.683851 0.678483 0.686891 0.699542 0.698025 0.692154
          0.688311 0.688857 0.690554 0.688594 0.686549 0.693339
          0.664332 0.688542 0.689982 0.680095 0.682997 0.6921
          0.680941 0.696222 0.70876 0.697535 0.697668 0.697869
          0.702714 0.697529 0.695283 0.694673 0.700623 0.696768
          0.698438 0.700254 0.694801 0.701244 0.711693 0.688053
          0.713682 0.715878 0.712024 0.711989 0.711798 0.716335
          0.7077 0.706993 0.715207 0.657824 0.699493 0.700081
          0.713611 0.708749 0.691741 0.696408 0.701022 0.683469
          0.690731 0.702657 0.693399 0.703369 0.696242 0.709588
          0.705349 0.700371 0.702318 0.672117 0.706187 0.705163
          0.689932 0.699829 0.705127 0.707223 0.709179 0.700958
          0.702006 0.696913 0.714013 0.706255 0.709428 0.703898
          0.666015 0.702667 0.697582 0.698372 0.692935 0.689258
          0.708562 0.697112 0.698764 0.701881 0.690993 0.696984
          0.699309 0.702921 0.699281 0.705214 0.685854 0.70036
          0.699064 0.693116 0.709977 0.71231 0.720134 0.710845
          0.693388 0.7155 0.702368 0.708983 0.711378 0.721075
          0.700892 0.708229 0.700155 0.649439 0.679162 0.689696
          0.686372 0.683024 0.683442 0.685038 0.6931 0.696061
          0.701867 0.703687 0.691729 0.692568 0.700316 0.714953
          0.694199 0.696368 0.697017 0.686366 0.705111 0.688017
          0.706086 0.696093 0.689993 0.680773 0.701332 0.689496
          0.683304 0.693031 0.696281 0.690836 0.700096 0.701053
          0.660649 0.697478 0.69024 0.706018 0.689351 0.70506
          0.70625 0.704063 0.695611 0.706426 0.697359 0.702098
          0.701024 0.702637 0.692104 0.703444 0.705085 0.700473
          0.680115 0.703457 0.681908 0.692182 0.684176 0.692101
          0.701638 0.709516 0.697261 0.696287 0.686226 0.704322
          0.69786 0.700426 0.699238 0.668532 0.706147 0.704447
          0.716524 0.694867 0.699795 0.689428 0.716947 0.706472
          0.697398 0.695269 0.694477 0.702287 0.700193 0.714792
          0.699103 0.685208 0.695634 0.695942 0.692538 0.692999
          0.69101 0.685261 0.67437 0.683322 0.695329 0.697655
          0.688953 0.682509 0.690551 0.684966 0.68376 0.692448
          0.645854 0.687042 0.700927 0.689766 0.675936 0.690285
          0.694503 0.695938 0.69253 0.704529 0.716728 0.705113
          0.693234 0.702959 0.698899 0.711586 0.700811 0.702676
          0.710745 0.696345 0.704075 0.70999 0.71328 0.709064
          0.716424 0.700141 0.710592 0.717509 0.718764 0.71422
          0.710768 0.704848 0.703308 0.6592 0.703915 0.689912
          0.710783 0.69595 0.702806 0.702691 0.717686 0.714455
          0.692699 0.712053 0.697466 0.691982 0.694383 0.707681
          0.703834 0.706463 0.70627 0.700944 0.699546 0.680084
          0.692326 0.686487 0.694745 0.686697 0.686564 0.686963
          0.690119 0.695243 0.689237 0.690561 0.683733 0.686412
          0.640402 0.686971 0.684377 0.679232 0.691051 0.689134
          0.693508 0.693293 0.690437 0.698312 0.699048 0.700441
          0.711131 0.684483 0.691058 0.701305 0.700461 0.719126
          0.698104 0.699773 0.699012 0.69593 0.683707 0.691059
          0.68672 0.690059 0.694349 0.705181 0.701191 0.709582
          0.702531 0.687719 0.708651 0.65787 0.69582 0.667183
          0.687319 0.709765 0.683781 0.691132 0.687136 0.70195
          0.69715 0.692326 0.700164 0.697816 0.701795 0.683985
          0.694015 0.702888 0.699861 0.706415 0.690567 0.701915
          0.702626 0.702337 0.708862 0.724645 0.709013 0.698308
          0.714371 0.707313 0.720214 0.712729 0.720507 0.717571
          0.644782 0.692026 0.685449 0.681949 0.685763 0.690026
          0.686315 0.709072 0.70357 0.702011 0.705038 0.691426
          0.699776 0.697455 0.700061 0.693289 0.709289 0.697086
          0.694314 0.702958 0.688231 0.690168 0.684645 0.685063
          0.699244 0.683958 0.691196 0.690703 0.697546 0.696482
          0.695424 0.701972 0.703253 0.664219 0.700247 0.697765
          0.693137 0.708379 0.699143 0.688811 0.685668 0.712824
          0.704213 0.695998 0.704648 0.693135 0.696332 0.70267
          0.702659 0.707782 0.699202 0.6984 0.684755 0.699853
          0.682071 0.686401 0.696117 0.686924 0.69438 0.679218
          0.701465 0.686891 0.683944 0.687855 0.681706 0.686413
          0.667303 0.700223 0.707082 0.691907 0.705742 0.689324
          0.708968 0.695128 0.687385 0.694547 0.702624 0.698319
          0.702282 0.695787 0.691404 0.70745 0.710521 0.712209
          0.698359 0.704379 0.690219 0.680816 0.6805 0.686271
          0.69867 0.686227 0.686521 0.696394 0.694488 0.70368
          0.691606 0.698448 0.694024 0.656843 0.705942 0.688555
          0.705439 0.701263 0.705673 0.709279 0.689598 0.706288
          0.700666 0.687565 0.715985 0.693117 0.701225 0.715055
          0.691316 0.70108 0.691809 0.713548 0.697075 0.707567
          0.708174 0.718916 0.699832 0.709914 0.710914 0.693443
          0.72016 0.707888 0.723387 0.703562 0.706788 0.706288
          0.675052 0.688877 0.705306 0.707867 0.699334 0.695683
          0.699646 0.701171 0.701331 0.701457 0.697583 0.700933
          0.712191 0.697863 0.677904 0.720017 0.695766 0.699244
          0.700459 0.699459 0.713014 0.690844 0.713226 0.696101
          0.704503 0.707001 0.709648 0.70229 0.712931 0.727215
          0.718746 0.722429 0.70798 0.665042 0.706846 0.691256
          0.694933 0.696118 0.700487 0.713322 0.693823 0.705474
          0.692222 0.709258 0.702086 0.718942 0.700384 0.703689
          0.704899 0.691881 0.700144 0.684421 0.702111 0.714788
          0.719424 0.70506 0.710972 0.712459 0.712258 0.721136
          0.716927 0.699096 0.705667 0.71438 0.710617 0.701201
          0.659168 0.697984 0.682221 0.708153 0.697396 0.707148
          0.697203 0.701559 0.709767 0.696816 0.696242 0.679544
          0.698201 0.688183 0.697519 0.703655 0.699779 0.699555
          0.698931 0.701072 0.684394 0.680722 0.706798 0.671516
          0.695618 0.693512 0.69878 0.688176 0.691427 0.698978
          0.689214 0.69115 0.686073 0.651847 0.69513 0.701839
          0.700163 0.706606 0.696981 0.705951 0.692854 0.713068
          0.698958 0.711607 0.691149 0.705264 0.700242 0.702416
          0.692547 0.700612 0.699085 0.712929 0.702964 0.690017
          0.690791 0.6848 0.687791 0.690144 0.702272 0.695354
          0.704055 0.698741 0.694597 0.685963 0.701244 0.694817
          0.661429 0.697013 0.700798 0.706957 0.712768 0.696044
          0.6904 0.69068 0.701786 0.705322 0.69128 0.699981
          0.691453 0.709111 0.693323 0.704179 0.709609 0.684175
          0.69816 0.7057 0.694655 0.684215 0.693921 0.681147
          0.696103 0.687898 0.690827 0.680499 0.67584 0.693682
          0.68596 0.694362 0.684634 0.657725 0.690027 0.687456
          0.684729 0.692075 0.695891 0.696486 0.692925 0.708513
          0.694818 0.695215 0.696065 0.694567 0.699499 0.694734
          0.693925 0.706685 0.688075 0.692888 0.705541 0.688893
          0.689894 0.687402 0.685906 0.684871 0.684812 0.687701
          0.695703 0.686351 0.717267 0.703519 0.677695 0.705636
          0.662031 0.705834 0.694847 0.685422 0.708174 0.696641
          0.711187 0.701069 0.71179 0.703576 0.691962 0.699362
          0.704987 0.696797 0.693903 0.695407 0.694108 0.701619
          0.694682 0.709988 0.688582 0.690271 0.679402 0.698322
          0.691134 0.676137 0.688288 0.699825 0.702739 0.690592
          0.698174 0.682743 0.683966 0.662128 0.704963 0.701895
          0.701632 0.697311 0.700032 0.70066 0.698705 0.705567
          0.692241 0.70103 0.707666 0.697495 0.674458 0.708803
          0.705134 0.70561 0.710011 0.69544 0.69873 0.693435
          0.689229 0.688464 0.691044 0.692399 0.685881 0.708042
          0.703673 0.697061 0.693918 0.687102 0.680595 0.680367
          0.646655 0.687557 0.688105 0.698839 0.686332 0.684697
          0.683875 0.692271 0.683559 0.708716 0.706024 0.693203
          0.702389 0.703359 0.70822 0.693065 0.704896 0.696746
          0.711191 0.70112 0.719612 0.707579 0.703332 0.715286
          0.71816 0.713235 0.705969 0.710603 0.718077 0.695146
          0.695157 0.701054 0.724373 0.640616 0.692623 0.685905
          0.680501 0.693609 0.692187 0.693312 0.684609 0.695343
          0.684688 0.691929 0.690622 0.697519 0.684926 0.693702
          0.689426 0.715407 0.697329 0.697049 0.696401 0.705936
          0.719657 0.711006 0.682565 0.699757 0.697145 0.712272
          0.709438 0.711612 0.724526 0.713532 0.714857 0.702632
          0.66552 0.701913 0.69483 0.702661 0.707716 0.705625
          0.697523 0.682114 0.71379 0.700972 0.699254 0.705362
          0.696923 0.699771 0.709044 0.70356 0.702342 0.704918
          0.697303 0.698471 0.703862 0.706099 0.711571 0.693743
          0.701655 0.703197 0.702023 0.700551 0.709568 0.710186
          0.713559 0.708154 0.700341 0.64383 0.687946 0.69679
          0.69364 0.685877 0.697742 0.691974 0.701287 0.679734
          0.712886 0.705365 0.691828 0.694541 0.69585 0.703212
          0.700876 0.701515 0.700606 0.686989 0.71305 0.693541
          0.690967 0.705812 0.706271 0.687329 0.704999 0.692229
          0.695303 0.693344 0.690492 0.681572 0.70258 0.700832
          0.650095 0.696811 0.689456 0.679924 0.685376 0.682066
          0.687525 0.69172 0.706819 0.689681 0.701552 0.696251
          0.707347 0.702307 0.696374 0.696638 0.682499 0.706728
          0.695281 0.714556 0.701383 0.691645 0.687509 0.685663
          0.696875 0.698064 0.696259 0.681303 0.703951 0.677871
          0.692791 0.686248 0.687975 0.630365 0.678867 0.699671
          0.704169 0.701725 0.685346 0.698332 0.698198 0.690029
          0.683741 0.699416 0.695006 0.710403 0.711508 0.708832
          0.699751 0.706771 0.701715 0.698296 0.696736 0.699941
          0.692059 0.698365 0.712468 0.708593 0.695426 0.699273
          0.687115 0.703616 0.693924 0.685548 0.692011 0.692982
          0.649548 0.697574 0.702535 0.70106 0.698143 0.701696
          0.702512 0.696979 0.702248 0.703202 0.70726 0.689175
          0.704128 0.711011 0.700577 0.694 0.695547 0.693379
          0.706695 0.70328 0.679528 0.69481 0.68555 0.684799
          0.698456 0.687038 0.676175 0.695064 0.693696 0.697077
          0.686067 0.692802 0.683961 0.623856 0.676298 0.693055
          0.704186 0.683868 0.69562 0.686134 0.706786 0.700953
          0.688122 0.682272 0.704841 0.699853 0.701981 0.697542
          0.690428 0.699255 0.69397 0.70859 0.698843 0.702222
          0.701643 0.706747 0.713271 0.709969 0.708137 0.724172
          0.722771 0.712133 0.704548 0.713704 0.712231 0.720651
          0.66428 0.700174 0.703947 0.70341 0.688698 0.702511
          0.699988 0.695127 0.707176 0.698868 0.709368 0.696627
          0.681846 0.702638 0.688753 0.707499 0.697996 0.713621
          0.70201 0.704316 0.696255 0.70124 0.701552 0.708753
          0.704484 0.701623 0.692138 0.686715 0.687335 0.697786
          0.673425 0.703201 0.683289 0.664204 0.695906 0.707308
          0.696525 0.705969 0.697744 0.688856 0.7028 0.687335
          0.705091 0.701662 0.709982 0.696764 0.686959 0.711491
          0.69352 0.710557 0.69418 0.700731 0.711156 0.686623
          0.688773 0.680803 0.697178 0.683397 0.691532 0.693276
          0.686564 0.689232 0.710067 0.712263 0.68755 0.687721
          0.648475 0.706907 0.701037 0.708168 0.693328 0.691238
          0.69907 0.702369 0.699516 0.705331 0.702315 0.695689
          0.709177 0.71066 0.700656 0.708555 0.700234 0.698596
          0.698712 0.703396 0.691096 0.69366 0.701844 0.703855
          0.690956 0.712352 0.678666 0.691805 0.69786 0.684619
          0.685291 0.682252 0.695584 0.66161 0.715682 0.698728
          0.692962 0.695178 0.703293 0.703571 0.69599 0.709077
          0.702976 0.701896 0.708355 0.703575 0.687656 0.711058
          0.702194 0.714321 0.694866 0.691134 0.688543 0.718747
          0.713392 0.69497 0.717238 0.719292 0.71022 0.711678
          0.709939 0.71005 0.716995 0.708216 0.698262 0.719872
          0.6573 0.692803 0.692235 0.700588 0.703481 0.699632
          0.691903 0.699752 0.707102 0.721501 0.702361 0.708946
          0.686137 0.709965 0.692378 0.705714 0.713889 0.690293
          0.693523 0.686301 0.687661 0.693207 0.692174 0.687726
          0.710126 0.694192 0.68406 0.681106 0.691874 0.693589
          0.700933 0.692119 0.672355 0.659982 0.695423 0.692831
          0.695136 0.704088 0.696852 0.701727 0.696338 0.696327
          0.697534 0.704753 0.69732 0.708161 0.688401 0.708715
          0.701623 0.699519 0.702746 0.685792 0.696541 0.711202
          0.708335 0.706393 0.702506 0.711726 0.71214 0.694693
          0.70968 0.706059 0.699951 0.701352 0.705168 0.709417
          0.634812 0.679242 0.705483 0.692809 0.690649 0.694855
          0.695845 0.697028 0.696541 0.698577 0.687823 0.685145
          0.709547 0.708905 0.703202 0.692501 0.698345 0.692846
          0.699408 0.699098 0.709512 0.714847 0.709034 0.730008
          0.708191 0.709736 0.729475 0.719043 0.715166 0.703793
          0.710374 0.704117 0.703129 0.634984 0.683297 0.684738
          0.692685 0.692896 0.699415 0.692446 0.68857 0.690369
          0.715771 0.704382 0.684056 0.705642 0.69412 0.719125
          0.68831 0.704954 0.680606 0.706653 0.698978 0.710746
          0.707598 0.713103 0.694918 0.718457 0.721553 0.707576
          0.699924 0.716173 0.710928 0.706868 0.710521 0.717526
          0.648066 0.686015 0.68518 0.685861 0.686181 0.676521
          0.691409 0.701391 0.710329 0.700988 0.695112 0.696977
          0.697753 0.703999 0.693498 0.709019 0.707498 0.696225
          0.6881 0.70463 0.708593 0.719272 0.712288 0.701462
          0.707093 0.699489 0.7008 0.710388 0.709197 0.710465
          0.705082 0.705564 0.720034 0.677465 0.696557 0.691188
          0.70724 0.706222 0.696442 0.687666 0.695985 0.700364
          0.694806 0.697384 0.697329 0.70229 0.7021 0.699302
          0.704142 0.703458 0.704964 0.703356 0.704418 0.70183
          0.731599 0.714381 0.695568 0.71339 0.703283 0.714932
          0.700981 0.707943 0.718501 0.710359 0.706396 0.71755
          0.644055 0.680147 0.706937 0.698343 0.701524 0.700042
          0.678665 0.67691 0.681196 0.711025 0.711188 0.703618
          0.700884 0.688646 0.712422 0.693944 0.698077 0.70182
          0.697955 0.691535 0.704067 0.678326 0.695762 0.69871
          0.685818 0.695415 0.694483 0.679936 0.681272 0.686826
          0.701669 0.691623 0.693788 0.659824 0.69581 0.701167
          0.69736 0.695552 0.698801 0.714548 0.70706 0.698664
          0.687509 0.693777 0.68869 0.698817 0.713297 0.702744
          0.694119 0.690421 0.691253 0.699248 0.693912 0.708751
          0.697103 0.688123 0.691522 0.695929 0.7001 0.705081
          0.70358 0.700021 0.69636 0.688812 0.685397 0.694139
          0.649635 0.689326 0.688103 0.700135 0.692129 0.684211
          0.693931 0.706099 0.683437 0.688538 0.690719 0.682203
          0.702834 0.709134 0.709627 0.692495 0.696852 0.704991
          0.705204 0.694916 0.687736 0.696723 0.699094 0.701016
          0.696214 0.68788 0.696499 0.688141 0.71314 0.681515
          0.690196 0.696561 0.706916 0.63665 0.695073 0.685887
          0.71237 0.686454 0.688859 0.69303 0.685773 0.685344
          0.699292 0.714786 0.687307 0.707798 0.719586 0.714261
          0.690048 0.696621 0.707581 0.701384 0.694367 0.718492
          0.703229 0.704618 0.71324 0.721807 0.703286 0.712362
          0.710228 0.716703 0.689263 0.704191 0.710436 0.704641
          0.629922 0.683635 0.702617 0.696013 0.67952 0.676825
          0.685251 0.704981 0.692967 0.700804 0.697614 0.704983
          0.713448 0.708266 0.695371 0.699475 0.701121 0.697592
          0.699718 0.703393 0.699849 0.697909 0.700421 0.706926
          0.683572 0.679534 0.701846 0.692874 0.686428 0.703724
          0.696459 0.691931 0.70535 0.655361 0.694651 0.684643
          0.695347 0.685601 0.706142 0.682838 0.669867 0.710635
          0.705782 0.7016 0.702778 0.698282 0.698788 0.708222
          0.702742 0.698303 0.692785 0.693718 0.708907 0.698999
          0.682633 0.6975 0.67085 0.699293 0.695263 0.694706
          0.682338 0.689305 0.698163 0.702598 0.704484 0.685184
          0.671936 0.703958 0.704941 0.684954 0.708708 0.702468
          0.715825 0.691622 0.720661 0.701006 0.696683 0.69794
          0.702678 0.68862 0.705501 0.707442 0.70144 0.686414
          0.702072 0.703433 0.699703 0.70607 0.697907 0.710531
          0.715448 0.714385 0.70344 0.700202 0.711362 0.724336
          0.708482 0.712115 0.716247 0.671256 0.708006 0.695928
          0.69872 0.702834 0.69131 0.693762 0.697576 0.718571
          0.701503 0.700538 0.708737 0.686269 0.700419 0.689301
          0.717149 0.703757 0.686006 0.688977 0.694519 0.707189
          0.705462 0.696175 0.713154 0.685803 0.706463 0.71591
          0.707748 0.711598 0.715925 0.709456 0.715914 0.709006
          0.632661 0.681871 0.704147 0.692033 0.684578 0.694644
          0.684847 0.695017 0.687059 0.700026 0.68736 0.706164
          0.703583 0.705038 0.711177 0.698437 0.701989 0.706961
          0.699656 0.702932 0.699758 0.686985 0.688536 0.708695
          0.710193 0.703008 0.710989 0.702289 0.706004 0.689268
          0.708058 0.69613 0.702586 0.671235 0.704264 0.713571
          0.697651 0.70013 0.71029 0.705691 0.714555 0.689943
          0.706796 0.696215 0.692107 0.702314 0.687123 0.708291
          0.707438 0.690004 0.686644 0.704555 0.68764 0.709712
          0.70587 0.7083 0.708946 0.710928 0.702807 0.702121
          0.713238 0.700686 0.702495 0.708542 0.717392 0.716295
          0.645516 0.690015 0.681998 0.683649 0.682923 0.697927
          0.685154 0.707702 0.712839 0.697147 0.708891 0.698574
          0.697062 0.698771 0.689548 0.724026 0.697009 0.69388
          0.704573 0.695577 0.708802 0.689068 0.686696 0.686555
          0.686537 0.679703 0.689189 0.691734 0.688336 0.69337
          0.68585 0.688912 0.696302 0.651334 0.711126 0.696366
          0.695627 0.70747 0.685364 0.689668 0.704299 0.701305
          0.709566 0.698139 0.703037 0.713175 0.695338 0.685079
          0.700915 0.697162 0.704708 0.705053 0.694644 0.688669
          0.694006 0.691997 0.689654 0.690788 0.693729 0.694664
          0.683795 0.691344 0.690217 0.680551 0.688694 0.690137
          0.662835 0.703084 0.695717 0.699867 0.706035 0.690457
          0.690249 0.70112 0.698049 0.704156 0.698583 0.7017
          0.702622 0.695363 0.698502 0.696558 0.696282 0.695862
          0.707759 0.700844 0.693024 0.695172 0.687323 0.693074
          0.696145 0.692851 0.695005 0.681082 0.683007 0.681967
          0.685255 0.701633 0.689169 0.682295 0.705928 0.697149
          0.692994 0.708878 0.675351 0.697108 0.712235 0.697251
          0.704866 0.702442 0.695416 0.704666 0.692381 0.701703
          0.705515 0.700715 0.689862 0.707299 0.698266 0.687298
          0.688843 0.675863 0.689207 0.69463 0.693683 0.689601
          0.69067 0.698831 0.701883 0.697997 0.675051 0.679572
          0.639031 0.684742 0.706785 0.694831 0.682882 0.689477
          0.693485 0.689504 0.688232 0.687748 0.713749 0.68812
          0.710054 0.682664 0.691909 0.696295 0.705171 0.707297
          0.706163 0.692692 0.711517 0.709176 0.719077 0.711582
          0.705969 0.723192 0.712826 0.728339 0.70956 0.704885
          0.721918 0.714675 0.710143 0.644375 0.676743 0.683109
          0.687446 0.669213 0.689449 0.707352 0.704957 0.694972
          0.694768 0.710038 0.6893 0.700189 0.713508 0.692092
          0.708801 0.69114 0.706456 0.699115 0.710568 0.691303
          0.675056 0.684037 0.696727 0.691474 0.699679 0.692777
          0.698207 0.688604 0.685765 0.701245 0.694492 0.693568
          0.653844 0.684709 0.687562 0.699643 0.687888 0.687577
          0.681826 0.685771 0.692342 0.693419 0.699601 0.704633
          0.712491 0.690658 0.70713 0.700192 0.700611 0.703889
          0.692086 0.69957 0.71681 0.713637 0.70378 0.73123
          0.71783 0.699338 0.708782 0.696174 0.714563 0.724628
          0.723547 0.707138 0.706585 0.633465 0.695988 0.7057
          0.70287 0.699859 0.706669 0.718916 0.702918 0.684838
          0.710617 0.69402 0.705791 0.716005 0.706284 0.711138
          0.691139 0.711479 0.71063 0.705964 0.70354 0.704552
          0.703018 0.699577 0.707023 0.708748 0.692615 0.690152
          0.694596 0.691602 0.688682 0.670874 0.686846 0.693632
          0.656198 0.697412 0.697833 0.69858 0.69985 0.699567
          0.706905 0.706804 0.690417 0.697868 0.699293 0.695455
          0.701509 0.697034 0.717991 0.688256 0.695293 0.701022
          0.700073 0.697339 0.68801 0.710065 0.696721 0.690174
          0.687748 0.707261 0.686379 0.696556 0.690089 0.687229
          0.690109 0.705144 0.695412 0.650236 0.711685 0.695259
          0.694282 0.696193 0.703833 0.704886 0.701085 0.694707
          0.692427 0.709466 0.699077 0.707263 0.718376 0.68634
          0.699678 0.705146 0.695506 0.710726 0.712248 0.689534
          0.682663 0.702535 0.700064 0.702425 0.686656 0.69871
          0.688831 0.702258 0.691569 0.689252 0.696981 0.689686
          0.652184 0.700107 0.703624 0.689607 0.68717 0.696067
          0.684739 0.686286 0.685705 0.691595 0.691285 0.701435
          0.706667 0.698869 0.690256 0.707153 0.706928 0.68768
          0.706898 0.690857 0.694685 0.708872 0.707993 0.705916
          0.697762 0.705625 0.705753 0.725204 0.714791 0.706512
          0.692363 0.720612 0.710703 0.644654 0.674925 0.681952
          0.689785 0.692746 0.701849 0.693528 0.692705 0.704621
          0.70838 0.706691 0.694682 0.70031 0.688965 0.686357
          0.700951 0.69373 0.703866 0.696638 0.700274 0.691797
          0.69199 0.691107 0.681745 0.69393 0.706104 0.679224
          0.688476 0.693154 0.692472 0.701949 0.693745 0.681609
          0.669445 0.705155 0.685526 0.697882 0.696557 0.697883
          0.696678 0.696552 0.696121 0.711 0.6808 0.714928
          0.697901 0.699301 0.705207 0.700532 0.706978 0.680205
          0.687375 0.691947 0.686421 0.680212 0.686472 0.69378
          0.697385 0.678723 0.708823 0.68184 0.684675 0.695159
          0.691001 0.701197 0.68653 0.644335 0.698409 0.694415
          0.71125 0.697708 0.695737 0.69884 0.700287 0.685708
          0.705862 0.69806 0.697342 0.702019 0.701467 0.70886
          0.689867 0.692848 0.700651 0.7142 0.701129 0.698685
          0.712686 0.705012 0.706569 0.705982 0.701031 0.706774
          0.708036 0.694959 0.702566 0.695045 0.695688 0.694114
          0.667108 0.702046 0.693646 0.690577 0.704301 0.691655
          0.706231 0.701904 0.700535 0.688507 0.695928 0.70471
          0.695566 0.715583 0.713444 0.686747 0.703638 0.701307
          0.680824 0.693608 0.713719 0.704046 0.710944 0.712004
          0.717504 0.703198 0.692042 0.717929 0.708387 0.7045
          0.712574 0.714516 0.7208 0.637168 0.678233 0.689801
          0.691579 0.691555 0.681691 0.685963 0.694707 0.704985
          0.69268 0.70274 0.687218 0.697479 0.703295 0.695664
          0.704643 0.697343 0.710417 0.694261 0.699251 0.714222
          0.715447 0.713472 0.712997 0.712484 0.696293 0.702724
          0.698468 0.707934 0.709453 0.71095 0.716501 0.718024
          0.63898 0.693598 0.687585 0.675352 0.687167 0.702444
          0.697183 0.687121 0.683498 0.692106 0.702097 0.697991
          0.695579 0.703261 0.704612 0.687025 0.697228 0.691303
          0.700374 0.70158 0.720059 0.723451 0.719471 0.717268
          0.715855 0.70479 0.726928 0.693891 0.695112 0.709567
          0.707053 0.714748 0.715088 0.669669 0.70536 0.684433
          0.696355 0.692672 0.699663 0.698186 0.703298 0.708767
          0.700553 0.69551 0.694758 0.700791 0.704957 0.697751
          0.690759 0.714097 0.700334 0.703573 0.694777 0.717203
          0.708046 0.705619 0.699213 0.715237 0.713715 0.718306
          0.70379 0.700796 0.700819 0.710678 0.723859 0.698703
          0.654553 0.693921 0.710597 0.7009 0.69972 0.691603
          0.700694 0.714702 0.712789 0.674808 0.703478 0.698794
          0.713763 0.688226 0.697794 0.700326 0.704195 0.693741
          0.709136 0.704708 0.703163 0.702944 0.69858 0.708462
          0.705558 0.709245 0.71332 0.722375 0.713163 0.703129
          0.695579 0.715624 0.693708 0.650133 0.690055 0.675103
          0.68149 0.692019 0.686402 0.689036 0.713793 0.699439
          0.704214 0.678603 0.697994 0.706029 0.688894 0.699907
          0.694215 0.696693 0.69031 0.697185 0.712132 0.702771
          0.699574 0.719301 0.693012 0.699519 0.705157 0.704232
          0.706323 0.689787 0.709364 0.701681 0.702356 0.719978
          0.662829 0.697508 0.716181 0.686894 0.694551 0.701536
          0.722881 0.702079 0.688203 0.695769 0.696936 0.695939
          0.708061 0.694796 0.694969 0.701263 0.692219 0.70684
          0.699968 0.693598 0.708808 0.704956 0.701565 0.714216
          0.706228 0.71187 0.714311 0.696663 0.708681 0.698165
          0.70223 0.708362 0.711351 0.648447 0.679706 0.688198
          0.687614 0.691368 0.702012 0.683916 0.693733 0.684342
          0.69534 0.693006 0.687685 0.702476 0.708726 0.694408
          0.702363 0.696572 0.70036 0.703862 0.691143 0.700939
          0.711999 0.702309 0.69486 0.709691 0.722167 0.712465
          0.718475 0.71281 0.709012 0.694054 0.70335 0.704445
          0.663669 0.713743 0.702974 0.693981 0.719478 0.710736
          0.70438 0.70399 0.6982 0.698867 0.72446 0.697032
          0.688632 0.689167 0.704161 0.692576 0.70484 0.706924
          0.694257 0.68509 0.694476 0.708616 0.71314 0.69671
          0.719541 0.70803 0.704104 0.712004 0.694108 0.705509
          0.719511 0.712377 0.715 0.630936 0.689703 0.684018
          0.711011 0.689884 0.700551 0.698695 0.70409 0.698261
          0.689332 0.69893 0.691595 0.700301 0.687385 0.701486
          0.691758 0.696156 0.703572 0.693824 0.691735 0.691975
          0.70072 0.706447 0.706615 0.703418 0.687005 0.70093
          0.705636 0.706219 0.675385 0.692193 0.69817 0.698333
          0.656867 0.704036 0.695111 0.706552 0.693569 0.694481
          0.705613 0.706116 0.703874 0.703352 0.70996 0.683743
          0.710937 0.690657 0.706934 0.708877 0.70752 0.709388
          0.710429 0.703365 0.682782 0.712696 0.687457 0.698887
          0.691328 0.691034 0.692843 0.69323 0.68511 0.690565
          0.686021 0.693792 0.702928 0.674283 0.69738 0.692523
          0.711194 0.690435 0.699234 0.695849 0.705098 0.707785
          0.70116 0.68791 0.710199 0.682996 0.701125 0.699019
          0.698486 0.702931 0.692454 0.694756 0.708291 0.701862
          0.686089 0.694036 0.679404 0.693256 0.704936 0.688237
          0.685973 0.703752 0.704321 0.691644 0.705519 0.682887
          0.677073 0.706028 0.70516 0.687539 0.700817 0.702722
          0.705245 0.688764 0.705985 0.696842 0.702667 0.724525
          0.681501 0.69668 0.689507 0.71243 0.706486 0.691362
          0.698455 0.699819 0.683063 0.704047 0.696304 0.689141