<?xml version="1.0"?>
<VTKFile type="PolyData" version="0.1" byte_order="LittleEndian" header_type="UInt32" compressor="vtkZLibDataCompressor">
  <PolyData>
    <Piece NumberOfPoints="7920" NumberOfVerts="0" NumberOfLines="0" NumberOfStrips="0" NumberOfPolys="0">
      <PointData Scalars="Calcium Concentration">
        <DataArray type="Float32" Name="Calcium Concentration" format="ascii" RangeMin="0.5108519792556763" RangeMax="0.734902024269104">
          0.535196 0.707665 0.699155 0.696025 0.702505 0.694794
          0.692083 0.709557 0.700698 0.686031 0.702396 0.704984
          0.699093 0.704155 0.698098 0.709199 0.689079 0.696651
          0.710895 0.696753 0.689573 0.675045 0.687937 0.690387
          0.68876 0.69054 0.698114 0.691959 0.685907 0.691798
          0.704716 0.686365 0.688953 0.546918 0.696166 0.697908
          0.695314 0.694106 0.699674 0.700136 0.709239 0.710955
          0.700041 0.690347 0.707583 0.689341 0.699976 0.710892
          0.686287 0.699609 0.695127 0.698501 0.707688 0.690011
          0.705608 0.682805 0.674964 0.680488 0.700866 0.705429
          0.686099 0.686758 0.699849 0.699545 0.684382 0.686381
          0.535814 0.68584 0.692839 0.681442 0.689679 0.690528
          0.692024 0.693064 0.699894 0.704761 0.696339 0.701335
          0.697603 0.69911 0.713005 0.704133 0.706317 0.714141
          0.723711 0.703859 0.712543 0.707314 0.713605 0.704026
          0.703649 0.710373 0.706834 0.701768 0.711979 0.704088
          0.708269 0.712955 0.707289 0.540855 0.689186 0.71098
          0.692765 0.697413 0.685418 0.71072 0.699245 0.714015
          0.703968 0.690084 0.697422 0.69469 0.703206 0.702038
          0.698648 0.698716 0.690327 0.702875 0.702949 0.707474
          0.687627 0.690051 0.689594 0.690475 0.71287 0.70325
          0.697339 0.699059 0.694384 0.698001 0.699325 0.696153
          0.537948 0.688782 0.686338 0.695653 0.6837 0.691902
          0.692761 0.690788 0.690975 0.708227 0.704438 0.696771
          0.703279 0.699432 0.692492 0.705565 0.710137 0.689233
          0.703008 0.698918 0.691368 0.691577 0.693678 0.686626
          0.68844 0.687939 0.677756 0.694793 0.695943 0.696184
          0.689024 0.695678 0.70016 0.553687 0.698215 0.695668
          0.69387 0.687258 0.711104 0.691376 0.700922 0.715073
          0.701653 0.687283 0.698958 0.699405 0.699788 0.700144
          0.702588 0.707911 0.69423 0.716102 0.702134 0.696046
          0.701878 0.699499 0.695386 0.696785 0.722432 0.709881
          0.696555 0.698635 0.715026 0.720984 0.709486 0.706771
          0.535172 0.688443 0.688571 0.685487 0.676343 0.682661
          0.679069 0.694773 0.71662 0.708345 0.688983 0.693175
          0.70037 0.716713 0.695166 0.696629 0.695152 0.69478
          0.70379 0.689347 0.707798 0.701301 0.694239 0.70059
          0.698633 0.710428 0.717467 0.717173 0.710334 0.701462
          0.717432 0.710441 0.718354 0.531873 0.685824 0.673208
          0.697196 0.691747 0.696532 0.685989 0.663974 0.708554
          0.693479 0.696815 0.721456 0.703787 0.70675 0.701731
          0.699544 0.705004 0.71187 0.710617 0.697706 0.692442
          0.688547 0.692726 0.690586 0.693408 0.696771 0.697107
          0.685236 0.685727 0.679246 0.704991 0.679385 0.687789
          0.525676 0.684747 0.688827 0.6919 0.691328 0.696209
          0.681418 0.702972 0.702788 0.699989 0.706357 0.714788
          0.705193 0.710069 0.705133 0.700555 0.708358 0.695277
          0.70467 0.687277 0.704503 0.704595 0.699359 0.701504
          0.717993 0.713149 0.700646 0.699866 0.707807 0.699895
          0.719239 0.703482 0.717853 0.54819 0.704112 0.698499
          0.698885 0.693138 0.693121 0.699265 0.704721 0.700113
          0.701984 0.719662 0.687814 0.693792 0.712039 0.68783
          0.699018 0.698234 0.699392 0.700604 0.696516 0.694391
          0.702323 0.697408 0.696168 0.714342 0.719108 0.711286
          0.705229 0.703777 0.70993 0.71125 0.702205 0.711367
          0.559305 0.705787 0.697439 0.704589 0.698154 0.703314
          0.706535 0.693859 0.694217 0.699847 0.703172 0.70098
          0.708136 0.691923 0.688684 0.706393 0.700739 0.706168
          0.699524 0.696365 0.709209 0.706052 0.719047 0.709446
          0.700675 0.710955 0.721957 0.706073 0.700404 0.705616
          0.712971 0.717161 0.719623 0.531768 0.68793 0.689694
          0.686557 0.672824 0.686432 0.695418 0.707271 0.696497
          0.699273 0.692679 0.702239 0.717511 0.70435 0.689977
          0.695258 0.706547 0.704877 0.701422 0.711276 0.69185
          0.684736 0.687474 0.685446 0.679383 0.691614 0.691931
          0.692661 0.686033 0.688025 0.690153 0.687181 0.696786
          0.550775 0.705314 0.685742 0.718532 0.682756 0.705852
          0.716062 0.701551 0.697996 0.692271 0.695659 0.698349
          0.710775 0.697195 0.696027 0.706294 0.701412 0.70579
          0.687403 0.71202 0.688677 0.70033 0.696476 0.680807
          0.698214 0.695117 0.684501 0.692243 0.704381 0.686026
          0.699561 0.69179 0.697659 0.543744 0.691236 0.680296
          0.693984 0.709462 0.692511 0.704187 0.703066 0.685556
          0.701925 0.701263 0.710267 0.703024 0.697425 0.703145
          0.700224 0.691624 0.697243 0.715156 0.691961 0.696552
          0.705741 0.679987 0.685104 0.691855 0.698086 0.685861
          0.694918 0.704019 0.689967 0.685812 0.692558 0.689803
          0.532213 0.680345 0.687081 0.689693 0.692452 0.681216
          0.688121 0.696894 0.684114 0.697012 0.693656 0.694864
          0.702527 0.713372 0.708441 0.68728 0.708173 0.706925
          0.691811 0.698123 0.711296 0.707476 0.707324 0.709367
          0.699818 0.710087 0.719574 0.717111 0.719426 0.719816
          0.709271 0.720173 0.721572 0.527619 0.694328 0.690368
          0.699804 0.706038 0.702184 0.693025 0.694372 0.687726
          0.705538 0.68539 0.687086 0.701001 0.709286 0.698777
          0.697208 0.690259 0.706362 0.692145 0.698504 0.690508
          0.680942 0.695098 0.684692 0.687856 0.69296 0.688949
          0.680478 0.685185 0.687449 0.693228 0.681523 0.689038
          0.542208 0.686199 0.684488 0.67977 0.689496 0.694598
          0.692764 0.696204 0.687656 0.696519 0.688695 0.701204
          0.70006 0.703865 0.705342 0.707539 0.698398 0.710818
          0.699061 0.689898 0.678692 0.680888 0.694867 0.688517
          0.697795 0.686492 0.696273 0.692041 0.698432 0.703632
          0.70166 0.68754 0.694708 0.52334 0.703246 0.678584
          0.672275 0.696056 0.683536 0.678014 0.710761 0.702818
          0.690137 0.698454 0.7012 0.692651 0.720479 0.693717
          0.716292 0.693988 0.695841 0.706536 0.697729 0.701523
          0.716525 0.704154 0.706064 0.707596 0.71604 0.702301
          0.704097 0.700608 0.700569 0.71629 0.706088 0.710993
          0.52827 0.688545 0.681905 0.683658 0.687298 0.680849
          0.67736 0.694693 0.687707 0.703098 0.698156 0.701241
          0.71882 0.697414 0.697532 0.69798 0.69791 0.710523
          0.699801 0.704915 0.687766 0.688734 0.682007 0.695317
          0.692281 0.696682 0.695361 0.681838 0.693313 0.68787
          0.706149 0.694526 0.710258 0.546222 0.694578 0.699221
          0.695653 0.710333 0.683809 0.709108 0.692687 0.702268
          0.696497 0.704116 0.708491 0.704492 0.71135 0.694165
          0.699108 0.690941 0.688112 0.710806 0.697093 0.691327
          0.688635 0.691174 0.68709 0.68597 0.688348 0.698329
          0.693921 0.684062 0.686902 0.691285 0.686301 0.690924
          0.5429 0.716499 0.702009 0.700356 0.71149 0.686385
          0.69557 0.707029 0.703957 0.690982 0.718235 0.696089
          0.698602 0.713797 0.691155 0.698567 0.699079 0.698878
          0.700218 0.700875 0.690221 0.695724 0.6766 0.692211
          0.691311 0.700395 0.679698 0.691124 0.696451 0.696727
          0.695923 0.682792 0.69516 0.550214 0.688752 0.696423
          0.68702 0.701376 0.70639 0.713455 0.68976 0.703378
          0.703277 0.685936 0.705216 0.701709 0.698091 0.709324
          0.694857 0.702048 0.694676 0.698193 0.703784 0.710707
          0.707824 0.714974 0.707469 0.694949 0.712013 0.718516
          0.696213 0.716149 0.706648 0.713117 0.702857 0.703741
          0.540509 0.706137 0.687846 0.717378 0.692762 0.697086
          0.702558 0.706352 0.697164 0.700024 0.705884 0.703644
          0.687283 0.720219 0.694702 0.717073 0.701362 0.693101
          0.700569 0.691439 0.719163 0.703704 0.710624 0.700505
          0.707849 0.720389 0.701555 0.701728 0.716805 0.713176
          0.723471 0.707369 0.710224 0.558032 0.714581 0.695111
          0.701955 0.712782 0.690892 0.704878 0.713893 0.701364
          0.702407 0.705021 0.694779 0.706238 0.710204 0.706239
          0.704558 0.692379 0.710274 0.685456 0.690684 0.704424
          0.700937 0.71698 0.701561 0.711562 0.729341 0.707215
          0.724713 0.726234 0.706866 0.716693 0.697135 0.704177
          0.537531 0.689358 0.693977 0.711656 0.710146 0.694139
          0.697696 0.701176 0.706713 0.713897 0.696972 0.697058
          0.702565 0.699329 0.71196 0.685472 0.70727 0.702878
          0.710932 0.705795 0.688359 0.691371 0.690125 0.694718
          0.697392 0.708451 0.696108 0.697647 0.691359 0.701379
          0.694648 0.683018 0.691916 0.548197 0.689576 0.700918
          0.694669 0.690672 0.687243 0.711394 0.697584 0.705026
          0.703545 0.70188 0.68775 0.703681 0.696942 0.708828
          0.694444 0.693817 0.697128 0.705334 0.699228 0.693692
          0.690098 0.681656 0.686011 0.68702 0.692534 0.690904
          0.694538 0.701187 0.699959 0.689003 0.691316 0.69698
          0.541303 0.706523 0.700263 0.695943 0.696299 0.700207
          0.700793 0.703998 0.70828 0.707138 0.691602 0.706426
          0.697346 0.7183 0.681506 0.702808 0.69837 0.701957
          0.705998 0.703269 0.687253 0.692721 0.684474 0.6796
          0.692661 0.691218 0.686545 0.685114 0.686519 0.690553
          0.689544 0.678148 0.686824 0.534963 0.692776 0.681483
          0.689132 0.707728 0.703412 0.69628 0.698976 0.694514
          0.697335 0.702504 0.69764 0.700314 0.709738 0.709812
          0.703138 0.703069 0.688868 0.716322 0.698871 0.681935
          0.695575 0.686903 0.688742 0.692908 0.686024 0.687711
          0.684083 0.689372 0.703618 0.696273 0.688004 0.69086
          0.538778 0.701411 0.699871 0.715168 0.700987 0.693781
          0.696503 0.704187 0.683855 0.713201 0.693985 0.694566
          0.710264 0.698252 0.718808 0.70537 0.694995 0.71867
          0.701334 0.695451 0.690461 0.68163 0.680246 0.694558
          0.684984 0.681931 0.685208 0.692017 0.70427 0.679777
          0.687139 0.697718 0.693019 0.541061 0.703665 0.701801
          0.69388 0.711455 0.692974 0.711903 0.686119 0.705785
          0.703414 0.703123 0.702951 0.686422 0.721303 0.69374
          0.699285 0.701772 0.697755 0.711748 0.687773 0.692351
          0.694829 0.674691 0.703323 0.689984 0.700392 0.692312
          0.692233 0.702695 0.708626 0.698082 0.691045 0.692021
          0.536901 0.688682 0.697853 0.69645 0.687886 0.688565
          0.691891 0.702561 0.682545 0.710812 0.6975 0.69961
          0.69735 0.701776 0.689644 0.710344 0.69724 0.701134
          0.698438 0.695747 0.703375 0.711818 0.707338 0.71072
          0.723849 0.716152 0.712721 0.697122 0.704392 0.709506
          0.697246 0.712413 0.710363 0.527864 0.677408 0.687168
          0.689694 0.698279 0.690451 0.702848 0.700407 0.68281
          0.691542 0.698365 0.712466 0.701755 0.711493 0.70264
          0.699775 0.691838 0.694831 0.69851 0.698229 0.712943
          0.722736 0.696833 0.691072 0.712642 0.713276 0.702507
          0.709431 0.706221 0.707898 0.717514 0.718296 0.708764
          0.538103 0.710337 0.687329 0.696457 0.70013 0.701087
          0.704902 0.682148 0.707153 0.711773 0.713261 0.682791
          0.697195 0.713984 0.705347 0.701946 0.692707 0.691937
          0.701977 0.691105 0.699059 0.714424 0.703456 0.698854
          0.696667 0.722166 0.707064 0.707779 0.706785 0.711968
          0.713701 0.712443 0.705212 0.52921 0.678433 0.678417
          0.69699 0.677939 0.698987 0.692776 0.695806 0.686816
          0.712112 0.69924 0.693146 0.700027 0.711245 0.695571
          0.689369 0.692726 0.70782 0.705738 0.697803 0.691328
          0.695757 0.690595 0.697501 0.698936 0.694999 0.686338
          0.695415 0.688347 0.682356 0.691993 0.684063 0.689624
          0.538316 0.699967 0.702445 0.681134 0.68127 0.68561
          0.706044 0.689599 0.693003 0.699637 0.695365 0.707489
          0.705703 0.69731 0.704277 0.697001 0.71063 0.702917
          0.695518 0.708978 0.69713 0.699929 0.679869 0.701801
          0.679886 0.687735 0.707162 0.692912 0.683955 0.69381
          0.689567 0.691479 0.690618 0.524365 0.674814 0.698134
          0.705535 0.685672 0.684072 0.691941 0.698351 0.698785
          0.701827 0.681276 0.693095 0.696523 0.686587 0.694834
          0.695788 0.705833 0.707492 0.696072 0.699096 0.704219
          0.704247 0.694038 0.714656 0.706781 0.701333 0.693549
          0.693463 0.694209 0.709193 0.70137 0.681115 0.698784
          0.533271 0.687587 0.705755 0.701524 0.704984 0.693802
          0.694503 0.702953 0.694092 0.703703 0.698879 0.710369
          0.70686 0.705076 0.704927 0.698242 0.710955 0.694461
          0.706252 0.707856 0.699193 0.68921 0.700572 0.672657
          0.690605 0.692995 0.687026 0.687335 0.70588 0.700181
          0.675575 0.680768 0.693121 0.530352 0.669584 0.695163
          0.686316 0.682442 0.693002 0.684827 0.686799 0.690854
          0.697446 0.691521 0.703929 0.709376 0.700768 0.695517
          0.712521 0.709456 0.704424 0.692177 0.694777 0.709787
          0.701307 0.718942 0.699803 0.707002 0.712203 0.734902
          0.724973 0.717034 0.694581 0.704643 0.705671 0.718985
          0.554141 0.703522 0.7028 0.712329 0.687445 0.702726
          0.70482 0.700601 0.704952 0.700874 0.69442 0.701325
          0.707356 0.708551 0.697742 0.703048 0.702956 0.693008
          0.70553 0.702539 0.69863 0.702807 0.686961 0.710813
          0.703069 0.691697 0.707078 0.700564 0.701477 0.704756
          0.695881 0.704528 0.678987 0.542002 0.697823 0.696341
          0.716652 0.699904 0.701481 0.69883 0.700637 0.713743
          0.693137 0.700893 0.693671 0.714819 0.69499 0.714059
          0.703429 0.687113 0.696365 0.700362 0.695138 0.691062
          0.71654 0.690424 0.692474 0.690396 0.697775 0.685217
          0.685211 0.69413 0.689535 0.70442 0.697585 0.692123
          0.527104 0.692341 0.685717 0.694259 0.70844 0.689357
          0.696677 0.688356 0.706499 0.703547 0.691753 0.701786
          0.71886 0.696861 0.697344 0.70568 0.703386 0.695291
          0.69601 0.710247 0.692038 0.703766 0.695816 0.700598
          0.684967 0.678595 0.690931 0.700169 0.69189 0.698269
          0.685994 0.68938 0.694945 0.548109 0.717558 0.708238
          0.698096 0.691877 0.709408 0.697496 0.698548 0.701549
          0.692017 0.708762 0.679414 0.703813 0.712016 0.679707
          0.695579 0.695891 0.690583 0.694717 0.713411 0.714583
          0.713489 0.705876 0.710834 0.698736 0.724747 0.709845
          0.70302 0.706933 0.71173 0.703037 0.704981 0.70547
          0.540087 0.700703 0.695525 0.698688 0.709414 0.691038
          0.703159 0.699728 0.698671 0.69419 0.706359 0.698625
          0.687928 0.718254 0.693081 0.683276 0.702803 0.704489
          0.712342 0.694701 0.690986 0.69601 0.690489 0.687403
          0.690153 0.707955 0.696245 0.694317 0.677889 0.703448
          0.697935 0.700905 0.681512 0.542558 0.707613 0.707398
          0.696671 0.700938 0.693197 0.697657 0.705797 0.704035
          0.705137 0.706463 0.700751 0.696879 0.705553 0.699436
          0.69681 0.691596 0.696462 0.708402 0.704943 0.715938
          0.707533 0.700983 0.704625 0.706795 0.714957 0.708129
          0.723164 0.703329 0.705307 0.709184 0.690637 0.717603
          0.527141 0.664217 0.701089 0.698669 0.683897 0.687841
          0.687708 0.701823 0.708693 0.704475 0.68754 0.693584
          0.685058 0.692733 0.706186 0.69752 0.699208 0.700627
          0.700311 0.693067 0.71927 0.701148 0.713631 0.723496
          0.716417 0.715672 0.715209 0.71431 0.717732 0.708211
          0.710554 0.725747 0.728081 0.536562 0.681649 0.681017
          0.684594 0.682602 0.691374 0.689693 0.701143 0.693676
          0.701846 0.702186 0.695699 0.709547 0.691355 0.702096
          0.698891 0.71084 0.704492 0.694979 0.704602 0.700766
          0.710131 0.703812 0.697322 0.70712 0.724335 0.711265
          0.70468 0.707324 0.714764 0.706591 0.710879 0.711197
          0.526824 0.678261 0.676217 0.686458 0.691508 0.685119
          0.697022 0.688096 0.698298 0.711935 0.695342 0.700333
          0.706452 0.705755 0.706492 0.6991 0.690939 0.697422
          0.709457 0.697488 0.706803 0.721816 0.717947 0.704131
          0.691385 0.707337 0.705656 0.702169 0.721272 0.71302
          0.703158 0.712057 0.710402 0.552697 0.711282 0.700126
          0.710707 0.709467 0.702727 0.690931 0.697621 0.702367
          0.693329 0.70994 0.700417 0.704083 0.719337 0.702517
          0.708258 0.683883 0.696764 0.69197 0.699509 0.703068
          0.704937 0.701532 0.7012 0.697001 0.711082 0.711129
          0.710964 0.711249 0.710471 0.711034 0.704506 0.709929
          0.532292 0.678673 0.707622 0.689113 0.68781 0.685349
          0.691832 0.680611 0.685236 0.688363 0.69511 0.681905
          0.700332 0.701357 0.704896 0.699103 0.696109 0.693397
          0.702394 0.709942 0.694772 0.695056 0.68118 0.695913
          0.699795 0.712396 0.685635 0.687962 0.691279 0.697215
          0.696644 0.689789 0.68351 0.552776 0.696745 0.702446
          0.710503 0.686098 0.706139 0.705089 0.700669 0.687949
          0.71571 0.706334 0.697136 0.707007 0.686749 0.718143
          0.690285 0.709589 0.700744 0.697737 0.697945 0.694202
          0.69535 0.690041 0.687691 0.688081 0.696868 0.715714
          0.71419 0.703455 0.696075 0.699234 0.701313 0.698928
          0.541586 0.674551 0.695855 0.695303 0.681491 0.689793
          0.693987 0.703366 0.694524 0.699139 0.681091 0.687567
          0.698253 0.712941 0.708504 0.698225 0.702552 0.705908
          0.696867 0.710738 0.695238 0.695671 0.695648 0.698305
          0.69658 0.687554 0.687451 0.69689 0.692525 0.694521
          0.678211 0.705016 0.698209 0.534018 0.683867 0.696743
          0.683747 0.684147 0.685233 0.670321 0.698306 0.694705
          0.707078 0.694602 0.696816 0.714974 0.686585 0.710361
          0.704971 0.689603 0.701853 0.693155 0.710314 0.711354
          0.7084 0.709202 0.723354 0.719161 0.70818 0.718493
          0.717697 0.708797 0.70152 0.705237 0.715885 0.720048
          0.53317 0.671083 0.697714 0.688499 0.686493 0.675787
          0.675946 0.704319 0.692788 0.697735 0.696541 0.690351
          0.696471 0.683518 0.695876 0.712539 0.706623 0.708201
          0.697165 0.711451 0.709775 0.706729 0.698372 0.703005
          0.691547 0.686355 0.68772 0.703342 0.69307 0.691154
          0.695676 0.690521 0.706333 0.523036 0.684343 0.686892
          0.690186 0.686517 0.687375 0.696632 0.683439 0.693422
          0.696958 0.708422 0.710579 0.689387 0.709873 0.696177
          0.697448 0.698106 0.695393 0.696001 0.699473 0.702627
          0.688386 0.705732 0.680375 0.684862 0.702759 0.693097
          0.691031 0.68992 0.681089 0.686394 0.69501 0.686731
          0.53791 0.706072 0.680228 0.69737 0.702138 0.701888
          0.692752 0.688336 0.706732 0.690946 0.703616 0.701506
          0.702813 0.714808 0.696192 0.710338 0.698191 0.695539
          0.714354 0.688759 0.695395 0.713019 0.697302 0.701001
          0.711247 0.724838 0.70939 0.703645 0.706308 0.705213
          0.725163 0.715371 0.720327 0.547091 0.702303 0.685112
          0.707785 0.700101 0.713818 0.705166 0.694558 0.714432
          0.691224 0.705528 0.708272 0.69835 0.709358 0.684638
          0.706568 0.709213 0.686458 0.705322 0.694596 0.716025
          0.689923 0.693212 0.706396 0.719069 0.708536 0.697857
          0.706784 0.718225 0.708014 0.716809 0.712742 0.711259
          0.52943 0.676288 0.700551 0.695075 0.695375 0.682914
          0.68061 0.693163 0.692089 0.707748 0.696688 0.695619
          0.704857 0.681894 0.710356 0.700395 0.712004 0.703393
          0.69153 0.693641 0.704482 0.70748 0.687723 0.698738
          0.699712 0.694616 0.712962 0.702394 0.700519 0.707937
          0.687524 0.711642 0.708009 0.548841 0.700421 0.680554
          0.686246 0.706329 0.696226 0.684816 0.71302 0.692943
          0.69997 0.691341 0.709263 0.691143 0.701885 0.698726
          0.70007 0.69783 0.709177 0.695955 0.697914 0.700382
          0.702204 0.700173 0.699754 0.709724 0.712665 0.705807
          0.704885 0.709648 0.709315 0.706213 0.705228 0.707614
          0.539195 0.686051 0.691748 0.683351 0.685252 0.681733
          0.687242 0.713104 0.681807 0.69752 0.704681 0.699002
          0.696503 0.69835 0.700052 0.700995 0.693497 0.703439
          0.696973 0.709068 0.694029 0.685278 0.680287 0.683543
          0.700268 0.67568 0.692409 0.692228 0.689642 0.689878
          0.681209 0.689216 0.693764 0.528288 0.697148 0.693191
          0.684493 0.716681 0.701168 0.709501 0.701908 0.711087
          0.709154 0.701261 0.706766 0.711338 0.703173 0.700618
          0.701216 0.698184 0.695653 0.698739 0.705704 0.674295
          0.695418 0.678054 0.684043 0.692601 0.701589 0.69837
          0.689241 0.695791 0.691095 0.696968 0.690692 0.695299
          0.554068 0.705378 0.702254 0.691118 0.716673 0.696338
          0.710744 0.700569 0.692309 0.706665 0.70276 0.702361
          0.688679 0.694365 0.713554 0.699895 0.706697 0.698974
          0.701551 0.701008 0.708105 0.688688 0.680785 0.690907
          0.690395 0.708482 0.686802 0.683135 0.692213 0.681244
          0.699502 0.712057 0.682838 0.556778 0.7117 0.693437
          0.695024 0.705986 0.685692 0.699122 0.708389 0.703267
          0.693702 0.700938 0.696367 0.699629 0.702813 0.695912
          0.698654 0.694227 0.693365 0.705978 0.702505 0.688461
          0.674117 0.679835 0.696591 0.680919 0.706441 0.684366
          0.699062 0.699644 0.692216 0.707312 0.676636 0.693962
          0.525952 0.666807 0.70005 0.690658 0.689934 0.681298
          0.678653 0.695654 0.688835 0.704516 0.69795 0.691821
          0.718619 0.699534 0.706785 0.701923 0.696201 0.692374
          0.694064 0.701663 0.699395 0.716484 0.717495 0.714489
          0.713772 0.703075 0.707157 0.725621 0.707149 0.70827
          0.715106 0.718459 0.714144 0.521552 0.675745 0.69144
          0.678752 0.681155 0.67977 0.695368 0.708717 0.695484
          0.713189 0.693688 0.699432 0.697217 0.708684 0.697128
          0.706117 0.69283 0.713896 0.695213 0.699443 0.68556
          0.700382 0.692117 0.690092 0.707597 0.691108 0.695041
          0.691641 0.684039 0.690976 0.69667 0.691511 0.682614
          0.53673 0.686947 0.692978 0.686151 0.701208 0.687376
          0.681308 0.700784 0.68752 0.694136 0.7031 0.70124
          0.694008 0.701105 0.695538 0.708959 0.699882 0.692729
          0.706135 0.694985 0.715381 0.726702 0.711598 0.716376
          0.716906 0.724321 0.715818 0.712544 0.709909 0.713291
          0.718858 0.712922 0.705865 0.535372 0.689683 0.708778
          0.696191 0.707562 0.693413 0.685882 0.702039 0.692501
          0.710205 0.688497 0.698014 0.693672 0.690331 0.691292
          0.690683 0.706796 0.714863 0.68313 0.704794 0.686581
          0.698889 0.700002 0.707705 0.699397 0.689929 0.692379
          0.705488 0.685076 0.695599 0.674277 0.696742 0.690517
          0.552486 0.698879 0.718019 0.695471 0.699676 0.68784
          0.707077 0.698104 0.698447 0.707861 0.690541 0.693825
          0.699584 0.701914 0.708183 0.710011 0.689225 0.715572
          0.699533 0.691126 0.688586 0.695891 0.701454 0.696662
          0.695969 0.699228 0.694106 0.702711 0.686311 0.703651
          0.705311 0.684846 0.707007 0.539699 0.682198 0.706066
          0.693805 0.703348 0.716738 0.683616 0.710798 0.696578
          0.707258 0.692729 0.695236 0.707759 0.69568 0.704615
          0.685684 0.700046 0.695278 0.695875 0.708701 0.708135
          0.687889 0.688447 0.691613 0.698454 0.701932 0.703275
          0.701 0.699241 0.701923 0.685712 0.684502 0.704926
          0.552488 0.695918 0.693921 0.699418 0.685415 0.699256
          0.690799 0.694189 0.686124 0.680185 0.683839 0.692051
          0.710206 0.717539 0.6899 0.675336 0.71391 0.712066
          0.699716 0.690019 0.690945 0.697321 0.701465 0.69462
          0.710241 0.703595 0.681543 0.717205 0.72326 0.705305
          0.693827 0.694046 0.709335 0.531996 0.690246 0.67484
          0.691575 0.697521 0.691611 0.690706 0.684108 0.713291
          0.690146 0.689198 0.693229 0.702653 0.714833 0.698719
          0.706454 0.691856 0.702393 0.70471 0.704022 0.683422
          0.694847 0.691194 0.68009 0.697844 0.697721 0.695937
          0.68692 0.688991 0.693155 0.687111 0.689606 0.689147
          0.549299 0.716506 0.699798 0.703709 0.70602 0.699753
          0.697301 0.697967 0.6931 0.700324 0.704138 0.692028
          0.697741 0.711157 0.705213 0.688746 0.69095 0.705889
          0.694927 0.714376 0.68306 0.685172 0.678674 0.689598
          0.694712 0.69776 0.684024 0.696915 0.690545 0.687705
          0.696217 0.70023 0.693681 0.551365 0.684505 0.702053
          0.715563 0.677372 0.690396 0.699469 0.694213 0.694315
          0.707735 0.699396 0.70701 0.711567 0.693814 0.702267
          0.711456 0.704348 0.690186 0.697195 0.699791 0.689102
          0.705143 0.693091 0.699337 0.708389 0.686623 0.702222
          0.702044 0.703847 0.708372 0.691495 0.705572 0.697976
          0.550609 0.696815 0.716569 0.692143 0.690076 0.705364
          0.692029 0.69488 0.693338 0.70477 0.692231 0.707877
          0.691823 0.696579 0.704479 0.693498 0.71152 0.707389
          0.685323 0.691081 0.700687 0.715804 0.702513 0.724485
          0.72086 0.70495 0.720429 0.706212 0.726991 0.703266
          0.7037 0.716247 0.706862 0.524069 0.677862 0.692759
          0.695675 0.683239 0.681277 0.684705 0.686858 0.703457
          0.694888 0.693003 0.696664 0.724227 0.693741 0.695725
          0.697771 0.702015 0.694835 0.6932 0.698671 0.705356
          0.708977 0.714326 0.720148 0.713693 0.710809 0.715555
          0.713006 0.685768 0.703407 0.71364 0.716762 0.7132
          0.529529 0.682959 0.696437 0.68037 0.699856 0.690156
          0.687597 0.693328 0.697787 0.680453 0.688097 0.700695
          0.702338 0.701069 0.71185 0.698802 0.704723 0.707016
          0.712083 0.693526 0.709627 0.723029 0.712357 0.709036
          0.716905 0.708125 0.716935 0.704525 0.726767 0.720129
          0.703421 0.712491 0.724354 0.545779 0.702431 0.710281
          0.700569 0.703777 0.707721 0.708917 0.701082 0.69569
          0.705062 0.702258 0.699462 0.708991 0.702393 0.700607
          0.69214 0.70348 0.712695 0.712709 0.700455 0.698267
          0.699257 0.698784 0.702518 0.71387 0.716086 0.71022
          0.713116 0.699565 0.709846 0.704114 0.71931 0.713897
          0.553312 0.673089 0.700959 0.686848 0.697133 0.681309
          0.703546 0.702694 0.714061 0.678436 0.686202 0.720508
          0.709 0.696799 0.711129 0.708601 0.704388 0.708931
          0.696911 0.68743 0.698687 0.712959 0.713874 0.701486
          0.711792 0.705292 0.721294 0.720714 0.70379 0.702108
          0.692166 0.700408 0.691364 0.547031 0.68639 0.680612
          0.678506 0.696974 0.679166 0.690271 0.701665 0.697995
          0.709985 0.68949 0.707443 0.682352 0.705605 0.702577
          0.705249 0.680811 0.715043 0.700104 0.71402 0.71568
          0.708847 0.707092 0.697294 0.712284 0.716893 0.696194
          0.692749 0.704471 0.714269 0.729498 0.701975 0.709388
          0.545508 0.695494 0.694098 0.694536 0.702767 0.703961
          0.68767 0.704016 0.689822 0.699474 0.69027 0.698388
          0.686167 0.706207 0.69427 0.696643 0.698516 0.706071
          0.697483 0.701773 0.72351 0.716576 0.703494 0.698025
          0.71161 0.695091 0.703152 0.715803 0.703702 0.710252
          0.707901 0.707934 0.714995 0.537428 0.670258 0.686331
          0.69903 0.67358 0.701286 0.694609 0.690947 0.694698
          0.717094 0.698626 0.7026 0.703174 0.706869 0.688448
          0.701672 0.71533 0.696416 0.713184 0.695153 0.716552
          0.706407 0.703155 0.704708 0.717638 0.725099 0.711363
          0.713155 0.707919 0.702243 0.699447 0.704368 0.704849
          0.546264 0.717651 0.683516 0.704938 0.697774 0.685969
          0.705948 0.692505 0.674158 0.697812 0.700446 0.716333
          0.697543 0.718788 0.691576 0.716976 0.699654 0.68844
          0.687314 0.694696 0.701915 0.702717 0.71845 0.701974
          0.720093 0.715444 0.69348 0.698142 0.699296 0.700368
          0.713332 0.710487 0.7201 0.536439 0.674137 0.702564
          0.705636 0.687316 0.680188 0.68881 0.691413 0.700899
          0.696203 0.694555 0.685813 0.701891 0.679859 0.709764
          0.696878 0.70455 0.696775 0.68655 0.70162 0.694562
          0.698078 0.702479 0.705103 0.698692 0.698307 0.712303
          0.70404 0.698046 0.709986 0.696925 0.696431 0.696447
          0.553139 0.676433 0.70031 0.694366 0.686656 0.7061
          0.691032 0.701061 0.684514 0.699616 0.694901 0.708452
          0.703997 0.699322 0.703376 0.690201 0.696643 0.706765
          0.695461 0.702981 0.698146 0.702498 0.697706 0.709342
          0.694377 0.685229 0.686056 0.695054 0.699454 0.692921
          0.693367 0.696529 0.692285 0.545269 0.707853 0.706653
          0.702777 0.69789 0.699295 0.704581 0.693908 0.692312
          0.692868 0.695724 0.715882 0.694329 0.702753 0.699561
          0.700505 0.701134 0.685378 0.711376 0.697117 0.687443
          0.70753 0.689134 0.687134 0.692267 0.716719 0.692282
          0.700341 0.688296 0.693116 0.691149 0.698274 0.701679
          0.531491 0.704511 0.690498 0.705378 0.713681 0.692785
          0.696924 0.710674 0.707712 0.692723 0.691802 0.708298
          0.69914 0.70863 0.684172 0.708493 0.710667 0.696611
          0.705013 0.707471 0.692881 0.691679 0.712721 0.683707