<?xml version="1.0"?>
<VTKFile type="PolyData" version="0.1" byte_order="LittleEndian" header_type="UInt32" compressor="vtkZLibDataCompressor">
  <PolyData>
    <Piece NumberOfPoints="8160" NumberOfVerts="0" NumberOfLines="0" NumberOfStrips="0" NumberOfPolys="0">
      <PointData Scalars="Calcium Concentration">
        <DataArray type="Float32" Name="Calcium Concentration" format="ascii" RangeMin="0.13048900663852692" RangeMax="0.7389969825744629">
          0.144862 0.678353 0.690808 0.698761 0.72065 0.701006
          0.692026 0.69715 0.687587 0.703186 0.692385 0.710327
          0.692011 0.699123 0.702423 0.703879 0.693135 0.708522
          0.690519 0.689142 0.710074 0.684548 0.692597 0.679863
          0.681655 0.691977 0.694356 0.700858 0.69631 0.6874
          0.69996 0.696549 0.694071 0.687779 0.150764 0.695054
          0.700342 0.70495 0.709555 0.701757 0.697861 0.689857
          0.707257 0.704963 0.700867 0.699126 0.701587 0.709148
          0.694149 0.714029 0.690929 0.715301 0.700614 0.691628
          0.687653 0.690672 0.686435 0.677904 0.683505 0.699209
          0.683386 0.688097 0.688182 0.692124 0.709846 0.687316
          0.687958 0.698079 0.14456 0.66292 0.686118 0.684655
          0.680893 0.691712 0.688694 0.69211 0.687516 0.709081
          0.690023 0.697689 0.699209 0.701015 0.696989 0.708444
          0.703665 0.718583 0.711303 0.695802 0.714759 0.710979
          0.712337 0.718033 0.697492 0.708002 0.705001 0.720421
          0.707636 0.707232 0.705967 0.708256 0.71009 0.713022
          0.148069 0.680648 0.691548 0.692704 0.703278 0.700471
          0.708272 0.693141 0.716216 0.714354 0.699289 0.694332
          0.70302 0.706208 0.692426 0.698805 0.69419 0.70665
          0.701363 0.699633 0.706738 0.694007 0.694029 0.690184
          0.697609 0.698101 0.69356 0.700766 0.712273 0.700363
          0.695293 0.700096 0.692538 0.695683 0.141165 0.666062
          0.691111 0.680693 0.682162 0.696477 0.685273 0.682186
          0.709011 0.696344 0.698655 0.693496 0.694429 0.705534
          0.692781 0.706503 0.700186 0.709901 0.709791 0.697877
          0.704266 0.692054 0.700046 0.679488 0.694278 0.689637
          0.694489 0.689562 0.695359 0.692617 0.686723 0.700605
          0.701221 0.692081 0.153998 0.681618 0.700459 0.704036
          0.706784 0.703916 0.698864 0.707083 0.680913 0.704297
          0.705583 0.70459 0.690141 0.69829 0.695887 0.694957
          0.691593 0.687012 0.697971 0.707581 0.694588 0.721382
          0.704727 0.701162 0.707203 0.720911 0.709549 0.700819
          0.698615 0.700887 0.719316 0.702859 0.699235 0.705002
          0.144545 0.6672 0.689125 0.685418 0.684276 0.695035
          0.679823 0.685324 0.692506 0.728573 0.692504 0.693716
          0.704727 0.691574 0.697509 0.686164 0.69434 0.709585
          0.691657 0.698113 0.68697 0.712396 0.695126 0.705495
          0.703638 0.713376 0.716169 0.712335 0.72211 0.715114
          0.705882 0.713169 0.707423 0.713153 0.143108 0.683299
          0.696734 0.700624 0.684691 0.716038 0.688527 0.684224
          0.684814 0.703659 0.717087 0.698071 0.689386 0.701653
          0.688823 0.716751 0.70091 0.693942 0.694725 0.691648
          0.689266 0.69942 0.689422 0.682242 0.689995 0.690943
          0.697388 0.683903 0.680133 0.694597 0.691934 0.690631
          0.673132 0.70074 0.137342 0.668637 0.683934 0.678068
          0.681255 0.684259 0.689835 0.699959 0.695542 0.706198
          0.700326 0.691144 0.694498 0.705077 0.683169 0.707365
          0.698451 0.695019 0.707881 0.696927 0.698276 0.712003
          0.695945 0.702762 0.694806 0.717111 0.701505 0.714398
          0.710191 0.702349 0.713491 0.715437 0.708872 0.715002
          0.146811 0.678149 0.688406 0.704511 0.704992 0.715387
          0.697462 0.688902 0.705168 0.698763 0.702309 0.695011
          0.69274 0.702134 0.700808 0.702092 0.700622 0.700579
          0.717216 0.682979 0.707276 0.711526 0.688098 0.709961
          0.705188 0.706683 0.703161 0.711832 0.704104 0.69844
          0.716244 0.700694 0.714962 0.712058 0.142695 0.684715
          0.693474 0.708817 0.686449 0.713538 0.69267 0.704097
          0.701869 0.699499 0.700847 0.695571 0.696762 0.696215
          0.69082 0.704701 0.699564 0.687518 0.699422 0.711091
          0.710893 0.707776 0.711394 0.711718 0.71111 0.693031
          0.698623 0.705622 0.719954 0.708474 0.71772 0.707787
          0.709298 0.707148 0.135748 0.670113 0.677633 0.688064
          0.681502 0.689911 0.688033 0.701454 0.702496 0.699899
          0.707381 0.702529 0.69272 0.695295 0.696751 0.713853
          0.697774 0.695412 0.704049 0.690527 0.690651 0.685731
          0.707507 0.682738 0.689557 0.69602 0.69177 0.690273
          0.683997 0.693736 0.693532 0.699275 0.695215 0.696334
          0.143003 0.685748 0.702956 0.694327 0.689201 0.689616
          0.70737 0.69768 0.711384 0.696695 0.700179 0.697862
          0.69877 0.691831 0.693429 0.700491 0.69695 0.702606
          0.708399 0.690666 0.693903 0.689763 0.702941 0.689503
          0.686337 0.697734 0.695035 0.691972 0.696829 0.695179
          0.695045 0.68617 0.703705 0.697785 0.146437 0.690562
          0.690074 0.708195 0.709339 0.696157 0.697561 0.684793
          0.705233 0.710565 0.705786 0.683807 0.690515 0.713234
          0.707745 0.697533 0.698933 0.689271 0.710169 0.702169
          0.688142 0.692744 0.679491 0.681688 0.677522 0.691573
          0.687646 0.688868 0.68876 0.691496 0.700002 0.684306
          0.683419 0.705559 0.137746 0.654845 0.687475 0.702954
          0.692097 0.685627 0.691277 0.695815 0.686663 0.70175
          0.695708 0.713997 0.695628 0.70399 0.68475 0.692066
          0.704831 0.696305 0.704208 0.697422 0.705869 0.710981
          0.718442 0.712178 0.700862 0.719861 0.705325 0.699924
          0.719795 0.720034 0.709255 0.716694 0.71401 0.698972
          0.13592 0.697807 0.701252 0.694217 0.717447 0.703686
          0.696812 0.694679 0.715733 0.706174 0.695367 0.709747
          0.712608 0.700397 0.690543 0.704721 0.70186 0.70057
          0.698413 0.703019 0.695785 0.689034 0.703531 0.683792
          0.694579 0.698111 0.691831 0.688592 0.684871 0.691806
          0.687947 0.694173 0.683371 0.69306 0.136086 0.663316
          0.698525 0.689132 0.69629 0.691864 0.696641 0.684149
          0.699769 0.683846 0.704017 0.709299 0.704092 0.703785
          0.695063 0.70073 0.692368 0.715323 0.705718 0.701292
          0.695842 0.693767 0.704851 0.683217 0.689819 0.689058
          0.688192 0.704461 0.703872 0.705463 0.713946 0.703917
          0.685874 0.699806 0.135842 0.679354 0.679646 0.671079
          0.687595 0.70296 0.686092 0.705486 0.693023 0.708383
          0.698963 0.703485 0.701399 0.698855 0.700165 0.695308
          0.697673 0.704892 0.696842 0.695504 0.688578 0.708859
          0.711968 0.700296 0.708352 0.729139 0.701344 0.701094
          0.715451 0.709506 0.711974 0.696843 0.716124 0.7213
          0.141973 0.66661 0.691767 0.687988 0.694504 0.688308
          0.694319 0.689245 0.704264 0.700167 0.705531 0.685412
          0.693934 0.703106 0.697054 0.697648 0.707179 0.705026
          0.698731 0.710907 0.688357 0.694398 0.698719 0.686788
          0.69273 0.707376 0.684682 0.684073 0.685194 0.694253
          0.701723 0.685797 0.701505 0.700743 0.150486 0.674324
          0.694802 0.705397 0.693619 0.698983 0.702798 0.694487
          0.698669 0.706255 0.68981 0.704097 0.693827 0.686751
          0.69453 0.697494 0.702915 0.706269 0.709285 0.700713
          0.6814 0.700795 0.680314 0.68386 0.693657 0.68763
          0.684714 0.692676 0.699639 0.687181 0.684426 0.687714
          0.688902 0.695054 0.141416 0.68652 0.6888 0.693077
          0.696101 0.69992 0.697452 0.714382 0.687073 0.686234
          0.707778 0.693695 0.700695 0.704197 0.682355 0.692522
          0.70389 0.706618 0.705889 0.697504 0.693282 0.696474
          0.674607 0.685137 0.688355 0.689055 0.690604 0.688487
          0.699784 0.693401 0.695262 0.695419 0.698801 0.700696
          0.14516 0.673023 0.694603 0.694583 0.699994 0.692369
          0.709662 0.707879 0.688415 0.705847 0.698802 0.685314
          0.714927 0.696727 0.687679 0.694944 0.690145 0.709565
          0.695443 0.708441 0.697003 0.709287 0.710262 0.712922
          0.704907 0.713134 0.709075 0.694699 0.721744 0.705714
          0.727223 0.703335 0.69632 0.710461 0.141292 0.697924
          0.683679 0.709134 0.702057 0.69805 0.701944 0.708428
          0.693504 0.697846 0.699436 0.690444 0.701062 0.693671
          0.683251 0.691128 0.710263 0.707284 0.699606 0.709596
          0.713043 0.717397 0.694326 0.710087 0.716647 0.708678
          0.703632 0.705634 0.700959 0.696836 0.715854 0.716788
          0.725404 0.719509 0.141139 0.691967 0.707478 0.68914
          0.69941 0.695779 0.702709 0.695339 0.696409 0.699543
          0.692434 0.698627 0.695386 0.709212 0.694723 0.703243
          0.70155 0.715754 0.699841 0.686519 0.709701 0.702943
          0.709951 0.706531 0.70898 0.7139 0.710625 0.709901
          0.721784 0.707184 0.706903 0.709394 0.711188 0.719121
          0.139637 0.676184 0.698896 0.703218 0.702487 0.689798
          0.707845 0.70742 0.701252 0.702909 0.696914 0.700315
          0.684056 0.700894 0.691056 0.699281 0.708529 0.690846
          0.69763 0.701377 0.695067 0.680144 0.670733 0.704609
          0.683955 0.699691 0.69823 0.69106 0.693943 0.707698
          0.688616 0.681428 0.687412 0.693072 0.14315 0.67156
          0.709128 0.707849 0.701988 0.712553 0.703269 0.703192
          0.690057 0.7021 0.689041 0.707448 0.70107 0.706802
          0.701389 0.704826 0.692049 0.71212 0.699089 0.708146
          0.707779 0.691087 0.682796 0.682966 0.683231 0.689449
          0.704284 0.693958 0.696849 0.702523 0.69074 0.686012
          0.695711 0.696009 0.1486 0.686733 0.686584 0.703123
          0.706504 0.706437 0.701431 0.698928 0.696187 0.685896
          0.719547 0.69099 0.697488 0.701014 0.69799 0.688398
          0.710323 0.720908 0.684684 0.691895 0.708635 0.700311
          0.677267 0.703689 0.689707 0.695054 0.683505 0.693517
          0.680195 0.686652 0.684268 0.678604 0.69275 0.688054
          0.153685 0.677231 0.69211 0.686536 0.68487 0.693636
          0.688467 0.692044 0.690197 0.706515 0.700047 0.677935
          0.685707 0.682022 0.684636 0.703081 0.69818 0.692763
          0.70029 0.688301 0.708518 0.701165 0.688577 0.687767
          0.687899 0.699998 0.689197 0.682181 0.682911 0.683752
          0.704844 0.691332 0.674307 0.702475 0.139692 0.682034
          0.691238 0.6915 0.693162 0.695142 0.697546 0.709715
          0.695717 0.724567 0.682266 0.682475 0.707674 0.705115
          0.704845 0.694933 0.696337 0.699399 0.68907 0.706727
          0.697245 0.688796 0.680055 0.684428 0.697677 0.684315
          0.686228 0.688953 0.719414 0.699382 0.688644 0.699119
          0.694183 0.687381 0.139635 0.681346 0.688802 0.690879
          0.704795 0.693478 0.700636 0.69437 0.69691 0.711426
          0.701696 0.693022 0.701601 0.697458 0.684449 0.721384
          0.69261 0.69579 0.709179 0.69256 0.702665 0.68536
          0.694113 0.690638 0.685576 0.697452 0.684943 0.700603
          0.696547 0.697736 0.691144 0.680415 0.675754 0.695973
          0.139529 0.6638 0.690096 0.688626 0.678799 0.697313
          0.683013 0.699466 0.686033 0.694924 0.705553 0.700585
          0.700201 0.704013 0.698038 0.703264 0.689075 0.692373
          0.697043 0.695439 0.69653 0.716832 0.713561 0.718747
          0.714099 0.719214 0.719506 0.689597 0.708222 0.712249
          0.692223 0.70001 0.701933 0.708059 0.145209 0.672522
          0.700557 0.693235 0.688176 0.701136 0.706697 0.686749
          0.686556 0.686767 0.696952 0.688919 0.692663 0.702192
          0.692958 0.706067 0.698954 0.704356 0.704556 0.687429
          0.700194 0.70493 0.726261 0.70596 0.69181 0.71957
          0.686597 0.702461 0.717272 0.709728 0.709576 0.712257
          0.710795 0.713532 0.138013 0.678179 0.693943 0.702237
          0.707941 0.706846 0.7055 0.691072 0.685642 0.715035
          0.691362 0.688248 0.711602 0.699339 0.685921 0.699702
          0.691996 0.705199 0.709157 0.69135 0.700592 0.705789
          0.702978 0.70802 0.704391 0.703971 0.704768 0.705711
          0.705807 0.704778 0.71753 0.711177 0.713165 0.712148
          0.144858 0.670219 0.685862 0.704588 0.679777 0.689043
          0.69184 0.693412 0.689376 0.689471 0.716894 0.707642
          0.690629 0.704169 0.694978 0.707294 0.697713 0.702672
          0.708152 0.686951 0.709728 0.69089 0.692469 0.71057
          0.705049 0.684013 0.691089 0.69625 0.688705 0.69333
          0.695748 0.685741 0.704311 0.698803 0.147202 0.673246
          0.693308 0.687815 0.677998 0.692575 0.684465 0.689496
          0.697942 0.705578 0.701524 0.706921 0.694322 0.701324
          0.697218 0.704216 0.701856 0.695678 0.704569 0.722123
          0.704548 0.698757 0.692901 0.685655 0.686126 0.68389
          0.699782 0.701599 0.689956 0.704899 0.686437 0.696919
          0.686803 0.684405 0.142903 0.650992 0.684655 0.697322
          0.698307 0.695686 0.682653 0.687363 0.697479 0.691245
          0.686945 0.694589 0.697799 0.704726 0.714875 0.71064
          0.700058 0.705696 0.702938 0.7129 0.690156 0.707142
          0.696403 0.695037 0.712236 0.702085 0.704271 0.704022
          0.704222 0.696528 0.692248 0.686507 0.685025 0.687947
          0.139878 0.672855 0.691085 0.704833 0.699335 0.707055
          0.694847 0.694002 0.709672 0.702871 0.69111 0.711109
          0.688298 0.695616 0.688041 0.704532 0.692262 0.697884
          0.692593 0.714551 0.701525 0.686947 0.701321 0.678715
          0.687204 0.699433 0.683426 0.688856 0.700237 0.692164
          0.686336 0.676139 0.693299 0.679554 0.143088 0.655889
          0.684238 0.691248 0.707708 0.68275 0.684842 0.690461
          0.701251 0.698498 0.702382 0.693207 0.703294 0.693123
          0.689568 0.702928 0.688701 0.695293 0.69372 0.703934
          0.69361 0.699209 0.707233 0.707363 0.703285 0.705674
          0.713877 0.719437 0.713529 0.708572 0.696553 0.721647
          0.713884 0.709373 0.148138 0.694957 0.689584 0.700847
          0.695648 0.692799 0.694714 0.690479 0.696333 0.705899
          0.686351 0.708336 0.695302 0.693914 0.703697 0.700402
          0.700226 0.699359 0.709784 0.696907 0.707446 0.69722
          0.690439 0.704631 0.707687 0.705967 0.706919 0.688215
          0.679556 0.697342 0.695451 0.68377 0.691114 0.693912
          0.145086 0.686531 0.698975 0.699468 0.68622 0.70007
          0.696767 0.69388 0.702016 0.703781 0.701674 0.694153
          0.717212 0.699736 0.690335 0.704536 0.697424 0.709173
          0.690924 0.6936 0.699947 0.701302 0.689544 0.684338
          0.690795 0.683234 0.689306 0.689389 0.697658 0.700486
          0.714094 0.698791 0.682368 0.696278 0.141294 0.677408
          0.701145 0.708913 0.700452 0.698845 0.70727 0.69487
          0.709595 0.696913 0.695756 0.717769 0.695952 0.695573
          0.699568 0.699832 0.699738 0.707517 0.684906 0.709117
          0.696895 0.69383 0.700633 0.698413 0.69647 0.695601
          0.703204 0.69553 0.69961 0.700871 0.683043 0.696104
          0.68721 0.689391 0.137566 0.680045 0.713791 0.696335
          0.684366 0.699907 0.696055 0.710891 0.69616 0.700031
          0.704278 0.691163 0.700763 0.695538 0.687253 0.711559
          0.691961 0.705699 0.705132 0.700451 0.697357 0.705309
          0.703047 0.697576 0.712362 0.724289 0.706444 0.705693
          0.706885 0.707234 0.713459 0.711131 0.700274 0.718951
          0.139253 0.677124 0.692837 0.699269 0.691775 0.697886
          0.705988 0.68416 0.699232 0.709892 0.722556 0.6964
          0.689605 0.696664 0.702873 0.691394 0.699178 0.700809
          0.703754 0.69762 0.683505 0.6918 0.698082 0.68558
          0.68191 0.699065 0.690401 0.68828 0.683177 0.689382
          0.692543 0.697439 0.683168 0.68998 0.130489 0.686546
          0.695053 0.690058 0.695273 0.710104 0.701662 0.702162
          0.693204 0.700113 0.697971 0.69376 0.702657 0.700413
          0.689113 0.697251 0.698322 0.702986 0.69975 0.68873
          0.704185 0.700755 0.702089 0.71254 0.70684 0.709929
          0.709707 0.695948 0.711009 0.715685 0.696089 0.704114
          0.716657 0.702039 0.139541 0.650046 0.688405 0.691772
          0.692893 0.691392 0.694177 0.702677 0.698461 0.695729
          0.687784 0.695706 0.681327 0.705596 0.69793 0.699577
          0.698699 0.718333 0.703017 0.70226 0.703144 0.702889
          0.709999 0.708289 0.718374 0.709546 0.715622 0.725
          0.72797 0.712936 0.692583 0.733872 0.707385 0.7117
          0.141446 0.658532 0.683448 0.685562 0.687281 0.696086
          0.697806 0.691323 0.686333 0.705207 0.720464 0.697668
          0.684661 0.697906 0.70272 0.707205 0.697474 0.710316
          0.693219 0.703572 0.706983 0.705868 0.714593 0.707843
          0.709696 0.716652 0.712652 0.709349 0.69756 0.717977
          0.702851 0.714982 0.713895 0.714731 0.137429 0.664311
          0.684576 0.691349 0.689814 0.681259 0.695095 0.685072
          0.702306 0.714448 0.694368 0.699912 0.703689 0.703423
          0.69368 0.699967 0.704993 0.708025 0.703366 0.689518
          0.712535 0.711618 0.713504 0.702361 0.69272 0.695266
          0.695767 0.706697 0.711475 0.711525 0.700266 0.716053
          0.718994 0.712436 0.151625 0.69742 0.700153 0.683688
          0.692071 0.705287 0.701501 0.689779 0.701842 0.704489
          0.698142 0.673553 0.691428 0.706887 0.681536 0.707684
          0.70263 0.704546 0.709134 0.706616 0.701454 0.703076
          0.717256 0.707809 0.689638 0.710505 0.70613 0.719077
          0.706582 0.709897 0.72107 0.712158 0.69644 0.72027
          0.134586 0.666313 0.685469 0.700164 0.693663 0.692313
          0.705723 0.688374 0.685557 0.686139 0.710994 0.705834
          0.706462 0.701993 0.691206 0.710024 0.694521 0.699916
          0.704949 0.698413 0.695123 0.687689 0.681418 0.699025
          0.699526 0.686832 0.693256 0.693286 0.685639 0.699974
          0.692476 0.694034 0.697422 0.696683 0.147158 0.674501
          0.69699 0.702209 0.688108 0.696542 0.697518 0.704794
          0.700373 0.708891 0.695814 0.700915 0.703953 0.682892
          0.71326 0.703554 0.698039 0.702064 0.69659 0.710254
          0.694511 0.698083 0.696381 0.69346 0.690948 0.699313
          0.701852 0.708114 0.70273 0.680727 0.691553 0.690385
          0.690303 0.684606 0.148766 0.667651 0.701559 0.685937
          0.678256 0.690749 0.679684 0.702411 0.703299 0.700012
          0.680393 0.690388 0.68915 0.703831 0.71062 0.704052
          0.689316 0.698106 0.692311 0.703991 0.699111 0.685491
          0.693228 0.684109 0.696955 0.698331 0.688046 0.698231
          0.701842 0.709484 0.684303 0.696851 0.700787 0.709967
          0.14295 0.655118 0.686426 0.697108 0.693355 0.678582
          0.694409 0.696939 0.694937 0.679259 0.692955 0.705771
          0.697402 0.69955 0.708931 0.709822 0.687939 0.689006
          0.71339 0.70404 0.695079 0.726739 0.710194 0.717382
          0.724962 0.724117 0.711562 0.701248 0.70611 0.705053
          0.696754 0.709991 0.717399 0.69459 0.143227 0.653503
          0.689669 0.706381 0.694478 0.68069 0.674612 0.692416
          0.702147 0.687622 0.70417 0.707355 0.696966 0.709869
          0.705538 0.705311 0.699143 0.699501 0.703011 0.703436
          0.696791 0.704714 0.696731 0.693905 0.706708 0.675499
          0.697424 0.699485 0.690097 0.686233 0.694056 0.706739
          0.694887 0.70094 0.148467 0.680102 0.699731 0.68137
          0.684903 0.689053 0.706769 0.688708 0.678499 0.703402
          0.717931 0.686729 0.711556 0.697331 0.686052 0.702885
          0.701833 0.701798 0.70491 0.705662 0.70471 0.687561
          0.696079 0.700421 0.676113 0.691142 0.699325 0.68911
          0.67849 0.699647 0.684728 0.694932 0.703882 0.686771
          0.141764 0.701071 0.70624 0.725983 0.685259 0.698849
          0.700821 0.709237 0.700969 0.71092 0.689414 0.691759
          0.70569 0.702056 0.682587 0.695478 0.697245 0.712553
          0.702138 0.693297 0.698497 0.696762 0.703466 0.705808
          0.720769 0.710133 0.715007 0.709146 0.70659 0.708818
          0.721229 0.710387 0.715127 0.723236 0.150518 0.688537
          0.699105 0.701106 0.700274 0.691605 0.700888 0.691134
          0.696252 0.706927 0.693344 0.684883 0.69835 0.691466
          0.680016 0.698666 0.710592 0.701781 0.702233 0.698808
          0.703824 0.703082 0.709219 0.70008 0.715619 0.694239
          0.695567 0.707986 0.708249 0.706831 0.726292 0.709192
          0.721784 0.699489 0.14183 0.651076 0.69621 0.694019
          0.684593 0.68122 0.686334 0.688452 0.697904 0.696404
          0.699718 0.693285 0.712639 0.692624 0.704179 0.704624
          0.695384 0.704458 0.695943 0.695547 0.69722 0.690915
          0.688624 0.698367 0.698452 0.703908 0.697145 0.711145
          0.700144 0.706138 0.687681 0.71418 0.699525 0.697844
          0.150405 0.695474 0.712375 0.697303 0.701164 0.700748
          0.70904 0.696629 0.701416 0.678631 0.704365 0.707832
          0.704813 0.70092 0.699066 0.699135 0.695585 0.697706
          0.697001 0.708642 0.699305 0.711677 0.699445 0.702869
          0.708739 0.700921 0.697979 0.70118 0.709968 0.702809
          0.704325 0.703256 0.72137 0.705125 0.146926 0.659442
          0.682792 0.689445 0.684653 0.684698 0.689138 0.694452
          0.708199 0.709136 0.703131 0.700071 0.700888 0.701537
          0.705236 0.690867 0.71083 0.699277 0.705315 0.698123
          0.697143 0.701528 0.682431 0.685797 0.700128 0.684961
          0.688622 0.687242 0.692466 0.688748 0.689448 0.685822
          0.691029 0.699024 0.143261 0.67933 0.699387 0.698841
          0.701947 0.705049 0.691602 0.69149 0.69345 0.68799
          0.719856 0.704593 0.688416 0.700907 0.708782 0.692588
          0.711947 0.700238 0.687807 0.699351 0.689121 0.695622
          0.690409 0.692632 0.699521 0.70097 0.699262 0.693493
          0.684819 0.694363 0.675941 0.684236 0.692436 0.680681
          0.145162 0.695492 0.699086 0.690746 0.701092 0.699589
          0.695408 0.696619 0.697599 0.703155 0.699379 0.703656
          0.694652 0.697561 0.696413 0.688634 0.694482 0.694003
          0.709074 0.695179 0.699816 0.687823 0.687943 0.70093
          0.694829 0.693384 0.691223 0.697568 0.677731 0.685824
          0.686218 0.683222 0.692106 0.694609 0.15184 0.698043
          0.701713 0.694292 0.702028 0.714327 0.679301 0.70747
          0.701407 0.692112 0.714954 0.701383 0.708904 0.714329
          0.698686 0.714026 0.696927 0.703116 0.698781 0.711212
          0.690607 0.689721 0.688093 0.682253 0.684225 0.702514
          0.675012 0.683598 0.69196 0.685253 0.704147 0.6811
          0.691878 0.70283 0.134263 0.665203 0.691446 0.699825
          0.683258 0.689133 0.68106 0.704684 0.696427 0.684372
          0.696408 0.721055 0.702454 0.698861 0.700974 0.696139
          0.697083 0.6952 0.701511 0.710418 0.694862 0.7216
          0.7194 0.705305 0.715754 0.701346 0.713171 0.718062
          0.712802 0.707977 0.69757 0.728317 0.709717 0.70024
          0.146411 0.66637 0.684064 0.686215 0.681236 0.682107
          0.684521 0.709892 0.6974 0.693695 0.691462 0.709941
          0.692697 0.708345 0.701553 0.698341 0.695811 0.69413
          0.703894 0.700135 0.703104 0.69193 0.682032 0.67527
          0.694754 0.691309 0.692221 0.697502 0.691513 0.689665
          0.689373 0.68537 0.694266 0.690318 0.141231 0.67249
          0.692393 0.697367 0.699159 0.684366 0.693541 0.69125
          0.68614 0.696588 0.702047 0.699893 0.694577 0.693576
          0.69429 0.696266 0.69362 0.694099 0.70483 0.689107
          0.711912 0.715508 0.715388 0.707799 0.727137 0.713751
          0.698904 0.696172 0.698099 0.708011 0.731204 0.721555
          0.699435 0.72229 0.145192 0.651107 0.690477 0.70556
          0.698561 0.700885 0.697078 0.712525 0.712812 0.699014
          0.705397 0.707434 0.698602 0.709048 0.704699 0.694279
          0.691086 0.70817 0.698046 0.701412 0.69189 0.696059
          0.703186 0.709851 0.705514 0.69919 0.696889 0.696778
          0.692901 0.703015 0.676271 0.679161 0.686434 0.682662
          0.152118 0.678289 0.699623 0.701054 0.690682 0.701954
          0.700585 0.696162 0.705343 0.693742 0.69974 0.707124
          0.710938 0.709743 0.701268 0.709633 0.68556 0.695492
          0.703068 0.690566 0.709426 0.684867 0.70523 0.692651
          0.697953 0.68456 0.70443 0.677482 0.681721 0.690282
          0.698162 0.686146 0.70907 0.687379 0.149998 0.666797
          0.705086 0.70191 0.687805 0.699729 0.695102 0.708728
          0.699654 0.711138 0.696245 0.705842 0.690641 0.696155
          0.710464 0.69251 0.708326 0.708622 0.703868 0.715377
          0.706632 0.690632 0.690673 0.692723 0.699965 0.692725
          0.71081 0.691156 0.6921 0.709316 0.678284 0.705952
          0.69317 0.689264 0.148633 0.677578 0.708574 0.704702
          0.685598 0.693623 0.699065 0.690374 0.686413 0.693674
          0.694277 0.679098 0.710246 0.703808 0.691786 0.69338
          0.702064 0.706293 0.702564 0.693278 0.704532 0.693121
          0.695607 0.708778 0.706711 0.700732 0.710461 0.704708
          0.717608 0.708335 0.702678 0.688988 0.717884 0.724454
          0.148552 0.672259 0.682284 0.680362 0.680383 0.694545
          0.69368 0.686859 0.701793 0.692493 0.713578 0.708593
          0.695488 0.713455 0.684018 0.705232 0.694962 0.703057
          0.697387 0.688143 0.697829 0.690432 0.68398 0.686508
          0.682685 0.692323 0.695168 0.683759 0.695205 0.688654
          0.686743 0.691317 0.696499 0.684215 0.151546 0.696718
          0.696674 0.706148 0.693162 0.69456 0.709382 0.698035
          0.706827 0.696385 0.709232 0.675685 0.720136 0.713065
          0.68799 0.69998 0.707788 0.714485 0.695233 0.696215
          0.689035 0.692885 0.675515 0.688167 0.699524 0.692695
          0.681602 0.690068 0.68175 0.690322 0.69463 0.69074
          0.69872 0.711212 0.144934 0.664661 0.70533 0.695683
          0.693761 0.694771 0.690172 0.697232 0.710094 0.683222
          0.708186 0.706201 0.700036 0.705038 0.694275 0.717948
          0.683579 0.688538 0.707122 0.709539 0.696722 0.692673
          0.709382 0.700181 0.711004 0.687886 0.699237 0.704699
          0.70122 0.706456 0.691099 0.702338 0.702329 0.695282
          0.144712 0.683472 0.699662 0.696331 0.687761 0.703515
          0.710331 0.712033 0.701794 0.711797 0.691505 0.707077
          0.692219 0.70685 0.7091 0.705435 0.69305 0.704029
          0.708787 0.685457 0.702811 0.711614 0.705175 0.71016
          0.709163 0.713432 0.699831 0.697353 0.709841 0.698749
          0.69724 0.714273 0.715837 0.714149 0.134315 0.652558
          0.684584 0.692838 0.696391 0.692086 0.684275 0.682487
          0.690421 0.711442 0.702105 0.708712 0.690518 0.694989
          0.702405 0.698666 0.715435 0.688946 0.703725 0.692643
          0.705975 0.710302 0.714785 0.70891 0.709107 0.706193
          0.698231 0.702047 0.69867 0.706865 0.703257 0.714904
          0.713314 0.713106 0.143002 0.65626 0.696273 0.693252
          0.686632 0.702387 0.695093 0.703148 0.686663 0.684278
          0.68634 0.695986 0.698862 0.705376 0.70361 0.695338
          0.694634 0.688972 0.70213 0.694438 0.706345 0.714853
          0.726036 0.711931 0.71077 0.713097 0.701885 0.713243
          0.703993 0.716912 0.69897 0.70037 0.711238 0.705341
          0.142957 0.679021 0.694952 0.694312 0.714462 0.699224
          0.696471 0.691286 0.692869 0.700936 0.69892 0.695168
          0.701254 0.695967 0.698139 0.695779 0.690022 0.705566
          0.704154 0.697092 0.704323 0.710248 0.702853 0.697511
          0.704711 0.706616 0.711943 0.727806 0.695194 0.703505
          0.702805 0.714018 0.721894 0.711731 0.142761 0.668842
          0.688387 0.709216 0.694771 0.69498 0.69828 0.699943
          0.707216 0.704693 0.686342 0.700796 0.702584 0.703249
          0.687415 0.689396 0.689437 0.698245 0.696989 0.699741
          0.719684 0.70615 0.698701 0.703448 0.709335 0.71385
          0.700829 0.706818 0.707473 0.707899 0.691174 0.696867
          0.712199 0.705956 0.152117 0.67034 0.685076 0.67555
          0.683405 0.694908 0.691871 0.689834 0.69997 0.697124
          0.706674 0.684613 0.714099 0.698647 0.680461 0.702938
          0.692392 0.697103 0.703251 0.700924 0.704428 0.698522
          0.708298 0.705045 0.696255 0.696155 0.69968 0.706591
          0.701753 0.685246 0.723568 0.699567 0.699323 0.716613
          0.139454 0.682973 0.701427 0.703143 0.692964 0.706984
          0.69564 0.718931 0.691926 0.689158 0.695758 0.71766
          0.695102 0.724402 0.698272 0.693576 0.698687 0.699002
          0.703046 0.69717 0.701715 0.707233 0.703756 0.697572
          0.716556 0.699796 0.718671 0.716749 0.695789 0.708262
          0.691844 0.708644 0.710264 0.695187 0.153693 0.661746
          0.684681 0.691509 0.693111 0.705331 0.696827 0.678831
          0.703151 0.687372 0.69128 0.705535 0.696169 0.706689
          0.6905 0.69633 0.712175 0.676753 0.710434 0.702058
          0.697944 0.701548 0.722257 0.694463 0.697413 0.707192
          0.716324 0.704318 0.718236 0.699846 0.706382 0.69972
          0.70696 0.709387 0.15011 0.683106 0.69755 0.696805
          0.681897 0.718988 0.704876 0.701828 0.690945 0.709265
          0.704594 0.727031 0.701661 0.690726 0.690538 0.705422
          0.6983 0.701528 0.702299 0.708427 0.68538 0.701647
          0.722741 0.699019 0.699784 0.706737 0.699167 0.702306
          0.708362 0.710383 0.710149 0.717732 0.722354 0.72638
          0.141029 0.656743 0.701408 0.689947 0.698961 0.684105
          0.688062 0.704771 0.720539 0.706881 0.697633 0.697923
          0.691441 0.696991 0.691764 0.701898 0.691971 0.689741
          0.697715 0.705277 0.684022 0.704604 0.701037 0.709988
          0.706182 0.698188 0.692361 0.698057 0.703512 0.71166
          0.675579 0.697524 0.70003 0.692209 0.148665 0.667363
          0.710885 0.697767 0.711571 0.720019 0.693615 0.698578