<?xml version="1.0"?>
<VTKFile type="PolyData" version="0.1" byte_order="LittleEndian" header_type="UInt32" compressor="vtkZLibDataCompressor">
  <PolyData>
    <Piece NumberOfPoints="7920" NumberOfVerts="0" NumberOfLines="0" NumberOfStrips="0" NumberOfPolys="0">
      <PointData Scalars="Calcium Concentration">
        <DataArray type="Float32" Name="Calcium Concentration" format="ascii" RangeMin="0.6093670129776001" RangeMax="0.7416629791259766">
          0.646466 0.702831 0.705806 0.699786 0.699481 0.698235
          0.704721 0.708221 0.70477 0.6962 0.704367 0.699469
          0.695705 0.696278 0.700612 0.701183 0.699057 0.696297
          0.685559 0.712078 0.691847 0.682939 0.685932 0.693197
          0.691008 0.690381 0.701179 0.694267 0.688324 0.700237
          0.71098 0.70289 0.688186 0.660241 0.691627 0.699944
          0.700536 0.700394 0.687186 0.691761 0.703245 0.69462
          0.701316 0.689337 0.702082 0.703437 0.698406 0.716917
          0.690895 0.701334 0.704348 0.684835 0.702797 0.693394
          0.694162 0.669457 0.684013 0.69093 0.687881 0.692927
          0.682954 0.691353 0.708907 0.686714 0.689072 0.69575
          0.633097 0.688033 0.69444 0.682295 0.693403 0.688908
          0.687612 0.69575 0.7033 0.695847 0.699609 0.690295
          0.68557 0.694283 0.714675 0.709423 0.717392 0.707008
          0.714217 0.707571 0.718414 0.712877 0.722134 0.694817
          0.719119 0.705877 0.709177 0.708587 0.702708 0.708188
          0.7157 0.709937 0.703403 0.645061 0.700837 0.701131
          0.708281 0.703018 0.697549 0.703334 0.696489 0.7061
          0.696538 0.694532 0.700875 0.706963 0.696155 0.70666
          0.694822 0.710636 0.707023 0.702472 0.703215 0.696741
          0.689307 0.688514 0.696863 0.690898 0.709069 0.705061
          0.69453 0.702199 0.700794 0.698255 0.695135 0.697735
          0.627832 0.687524 0.682075 0.694647 0.684581 0.688975
          0.684766 0.710825 0.69273 0.692474 0.7093 0.708118
          0.710906 0.698396 0.708082 0.683392 0.693866 0.700313
          0.693154 0.696652 0.699496 0.700734 0.68742 0.69707
          0.703894 0.692888 0.679559 0.696539 0.679961 0.702924
          0.690479 0.699522 0.693435 0.656218 0.696797 0.699676
          0.70752 0.705455 0.689142 0.694587 0.692023 0.715702
          0.706652 0.705517 0.700573 0.703145 0.688386 0.710769
          0.698012 0.695257 0.684824 0.711129 0.684591 0.703976
          0.705452 0.701462 0.699513 0.716507 0.699162 0.702307
          0.700272 0.703395 0.721273 0.72129 0.704003 0.708861
          0.635009 0.677431 0.680468 0.690843 0.696044 0.697194
          0.691085 0.694646 0.717749 0.700897 0.692073 0.702166
          0.705524 0.706298 0.69051 0.702407 0.684882 0.692797
          0.694366 0.703049 0.700979 0.709917 0.704153 0.699496
          0.69809 0.720414 0.70314 0.72701 0.723659 0.714135
          0.713162 0.716347 0.715161 0.639516 0.679604 0.693643
          0.682564 0.693798 0.692525 0.682231 0.681585 0.710964
          0.702424 0.69646 0.696377 0.69384 0.689156 0.706874
          0.694515 0.706393 0.692223 0.690966 0.701055 0.685177
          0.682858 0.679005 0.69237 0.706008 0.697284 0.685726
          0.689891 0.690476 0.688331 0.698765 0.687923 0.6964
          0.6418 0.694277 0.69174 0.682144 0.690181 0.690147
          0.685559 0.695336 0.702052 0.696428 0.700791 0.699998
          0.696545 0.68727 0.696799 0.693566 0.702571 0.703074
          0.693371 0.698314 0.69844 0.708391 0.712036 0.694126
          0.709946 0.719356 0.713001 0.712401 0.706223 0.713107
          0.700906 0.713135 0.714827 0.65106 0.703994 0.698256
          0.716976 0.706566 0.687325 0.70273 0.692265 0.692871
          0.693419 0.705558 0.691521 0.708472 0.689262 0.707938
          0.69352 0.698416 0.700816 0.676031 0.703008 0.69947
          0.687993 0.701552 0.699473 0.716431 0.709219 0.697216
          0.702196 0.693879 0.722525 0.712052 0.713487 0.699735
          0.657287 0.698627 0.706169 0.702564 0.694338 0.690916
          0.710381 0.702123 0.703095 0.699909 0.693173 0.700154
          0.703698 0.70645 0.69875 0.710863 0.686735 0.700131
          0.694531 0.7032 0.710485 0.71513 0.715932 0.71569
          0.694306 0.71298 0.708203 0.700068 0.707223 0.725893
          0.69457 0.710257 0.697495 0.636712 0.687869 0.691741
          0.687011 0.68302 0.684127 0.683893 0.70068 0.692927
          0.70234 0.708801 0.68474 0.692987 0.702534 0.70933
          0.681331 0.695141 0.701162 0.689535 0.708039 0.693517
          0.70117 0.692767 0.681265 0.682159 0.701643 0.688747
          0.678891 0.690924 0.695544 0.686757 0.695927 0.706058
          0.650905 0.702001 0.692242 0.712221 0.688912 0.704321
          0.704025 0.695849 0.696684 0.707821 0.694428 0.69809
          0.706092 0.699589 0.687953 0.702578 0.701643 0.697916
          0.685702 0.706731 0.693192 0.696891 0.686674 0.692274
          0.704281 0.702517 0.698377 0.695567 0.68965 0.700937
          0.697584 0.707068 0.701295 0.658654 0.706133 0.702324
          0.716245 0.69436 0.69944 0.689942 0.713836 0.7057
          0.70101 0.689358 0.697726 0.701275 0.694307 0.71193
          0.694033 0.689995 0.702845 0.697369 0.693465 0.691324
          0.697321 0.688025 0.67452 0.685581 0.696065 0.699751
          0.691012 0.687088 0.688079 0.692881 0.686577 0.695183
          0.630354 0.685638 0.697294 0.693897 0.676854 0.687993
          0.695383 0.701743 0.685978 0.700894 0.710266 0.693356
          0.689456 0.701103 0.703362 0.712139 0.70501 0.700881
          0.708967 0.700464 0.70304 0.705992 0.702833 0.708871
          0.718193 0.700536 0.711435 0.715832 0.718763 0.715507
          0.704254 0.701559 0.703824 0.648722 0.706875 0.694032
          0.711219 0.696785 0.70091 0.701266 0.708215 0.711709
          0.699923 0.707852 0.703578 0.694622 0.690923 0.70576
          0.706575 0.690281 0.705227 0.698711 0.698167 0.683874
          0.683678 0.692325 0.695268 0.681644 0.692331 0.685639
          0.692237 0.694282 0.686376 0.699634 0.681998 0.685064
          0.636399 0.690262 0.682572 0.685603 0.690852 0.690782
          0.689837 0.695954 0.701641 0.701979 0.703473 0.695568
          0.707393 0.681045 0.69177 0.70426 0.697403 0.712494
          0.700336 0.695794 0.696995 0.683748 0.684504 0.689605
          0.689532 0.688262 0.695314 0.706929 0.701261 0.705299
          0.701392 0.691669 0.6973 0.646878 0.692101 0.676954
          0.68453 0.705597 0.684837 0.691261 0.696063 0.709216
          0.703534 0.69743 0.702007 0.688406 0.70872 0.68893
          0.699829 0.692448 0.70058 0.698691 0.69518 0.702532
          0.710181 0.698731 0.706691 0.721659 0.718719 0.697869
          0.690736 0.702243 0.716085 0.718649 0.718694 0.715185
          0.624243 0.694698 0.681324 0.683591 0.698161 0.681209
          0.693795 0.711484 0.701665 0.704103 0.710525 0.69886
          0.69495 0.702953 0.70286 0.696171 0.704589 0.700538
          0.686041 0.708342 0.68539 0.697024 0.681212 0.68336
          0.69826 0.688055 0.69098 0.687799 0.705491 0.6997
          0.696769 0.69847 0.704347 0.643469 0.705078 0.699999
          0.691884 0.705684 0.697683 0.695484 0.693041 0.710023
          0.705092 0.696805 0.710372 0.689837 0.702258 0.70562
          0.712496 0.711649 0.69459 0.705282 0.694372 0.702034
          0.681878 0.682963 0.694989 0.685689 0.69272 0.68137
          0.701226 0.695301 0.686546 0.692286 0.681773 0.685624
          0.652218 0.702847 0.707026 0.694628 0.70554 0.682047
          0.705115 0.703202 0.704698 0.693384 0.70309 0.70529
          0.705208 0.699285 0.695946 0.711492 0.699714 0.713082
          0.698134 0.705049 0.690466 0.682548 0.675881 0.687542
          0.696352 0.692057 0.684921 0.692696 0.692446 0.702443
          0.693908 0.69091 0.689689 0.641569 0.712191 0.690082
          0.693431 0.693029 0.698245 0.718327 0.686713 0.711945
          0.703063 0.686935 0.706342 0.689057 0.71081 0.709094
          0.691464 0.690549 0.694455 0.708163 0.692297 0.711559
          0.709808 0.712563 0.701843 0.709821 0.713609 0.696684
          0.713878 0.71457 0.720873 0.707178 0.713441 0.698818
          0.651385 0.696591 0.706381 0.711764 0.70142 0.687926
          0.697439 0.703846 0.704602 0.697722 0.697123 0.696777
          0.709023 0.699799 0.681193 0.718099 0.692759 0.692247
          0.69173 0.693075 0.718243 0.695619 0.708027 0.7001
          0.711745 0.712834 0.707891 0.704983 0.712293 0.72997
          0.723736 0.718923 0.714375 0.651401 0.710288 0.690518
          0.700517 0.693132 0.696522 0.707199 0.701285 0.707036
          0.694559 0.704805 0.700318 0.718763 0.700813 0.702641
          0.710093 0.687242 0.6956 0.690141 0.698048 0.714529
          0.721755 0.715147 0.704605 0.713439 0.713284 0.723832
          0.714344 0.701442 0.711454 0.722333 0.711276 0.697587
          0.646662 0.695499 0.688854 0.700583 0.705915 0.706437
          0.699166 0.710555 0.70761 0.700538 0.697744 0.688193
          0.699659 0.689294 0.699588 0.696065 0.699563 0.695726
          0.700622 0.698346 0.683206 0.689283 0.697036 0.675801
          0.6949 0.69636 0.697113 0.687507 0.691786 0.701283
          0.686247 0.700381 0.691702 0.651543 0.697 0.700111
          0.693471 0.705821 0.689984 0.716777 0.695466 0.713806
          0.701 0.707839 0.696303 0.710357 0.693056 0.707622
          0.697605 0.69437 0.696541 0.707885 0.701946 0.687724
          0.688761 0.687913 0.687216 0.687799 0.700237 0.691529
          0.69805 0.694259 0.699717 0.684847 0.695173 0.702304
          0.656454 0.701128 0.686926 0.704115 0.706282 0.689671
          0.69635 0.693372 0.699707 0.695415 0.691266 0.70754
          0.684594 0.708979 0.698189 0.70555 0.707476 0.682292
          0.699614 0.704548 0.693217 0.68761 0.685239 0.685513
          0.692425 0.691314 0.681695 0.68018 0.676862 0.697075
          0.688826 0.69103 0.69009 0.644959 0.688544 0.691167
          0.687911 0.692657 0.690113 0.693397 0.706667 0.71278
          0.691227 0.702904 0.688927 0.693762 0.701506 0.699969
          0.697076 0.708017 0.685402 0.702539 0.709155 0.686447
          0.684495 0.686276 0.687326 0.691755 0.694107 0.691272
          0.694358 0.694041 0.72329 0.707186 0.683557 0.693494
          0.6482 0.705023 0.698111 0.690606 0.699698 0.697859
          0.702665 0.701509 0.713036 0.699852 0.690052 0.703552
          0.701781 0.695679 0.699493 0.697339 0.688252 0.693396
          0.695717 0.707369 0.690492 0.686178 0.676278 0.698269
          0.7007 0.683702 0.683265 0.689176 0.698525 0.692729
          0.695414 0.68556 0.684507 0.65068 0.705643 0.713649
          0.702055 0.696575 0.69576 0.700901 0.701014 0.7115
          0.68585 0.693047 0.70693 0.69467 0.690433 0.702423
          0.706318 0.704936 0.710965 0.701105 0.690076 0.691554
          0.69108 0.679316 0.698291 0.699786 0.691238 0.702927
          0.699739 0.696201 0.699148 0.693125 0.68278 0.682877
          0.633498 0.682635 0.685012 0.700652 0.683603 0.690041
          0.69122 0.69442 0.679763 0.704746 0.707203 0.700442
          0.700507 0.706904 0.703204 0.688896 0.708574 0.707582
          0.718069 0.69674 0.715195 0.703273 0.704364 0.7177
          0.71812 0.70772 0.706032 0.704292 0.713661 0.696251
          0.693705 0.703276 0.719374 0.636558 0.682171 0.695324
          0.678727 0.694484 0.692016 0.694062 0.687566 0.689441
          0.692124 0.6968 0.695207 0.696985 0.692747 0.694424
          0.704776 0.712182 0.690004 0.696875 0.69594 0.711998
          0.719975 0.705191 0.693629 0.700439 0.689547 0.706624
          0.707479 0.705103 0.721153 0.718778 0.715411 0.6992
          0.658524 0.698494 0.6893 0.696335 0.707778 0.700424
          0.705945 0.682857 0.71276 0.701262 0.708074 0.703718
          0.689397 0.706058 0.704497 0.704085 0.711904 0.704263
          0.698996 0.700675 0.696045 0.703627 0.719177 0.692237
          0.704543 0.708243 0.704637 0.700256 0.712448 0.71487
          0.716822 0.707924 0.698341 0.641678 0.691594 0.692054
          0.691798 0.67814 0.692655 0.687271 0.704178 0.683316
          0.71206 0.706272 0.690129 0.699601 0.701847 0.694814
          0.699063 0.699396 0.698737 0.686447 0.720626 0.694181
          0.693761 0.697901 0.703313 0.693113 0.715405 0.690471
          0.696322 0.698621 0.697461 0.68341 0.705458 0.698556
          0.651662 0.696234 0.695951 0.676674 0.679551 0.693725
          0.687031 0.696621 0.710728 0.695736 0.704682 0.694612
          0.704455 0.695109 0.693568 0.698307 0.68746 0.692933
          0.697086 0.708244 0.708601 0.689635 0.686249 0.695113
          0.695938 0.690694 0.692612 0.683665 0.709491 0.685779
          0.700024 0.689006 0.682534 0.613491 0.680254 0.702054
          0.7033 0.702373 0.685958 0.687007 0.701982 0.687349
          0.686513 0.694665 0.689647 0.703998 0.703029 0.705935
          0.692957 0.70196 0.69935 0.69306 0.696293 0.702302
          0.694631 0.700873 0.710901 0.708412 0.703728 0.700825
          0.690359 0.700068 0.694637 0.684635 0.69483 0.695484
          0.630233 0.692526 0.705411 0.701483 0.697817 0.704095
          0.704921 0.703171 0.700883 0.699846 0.713533 0.693353
          0.70706 0.709011 0.694171 0.694961 0.696848 0.694188
          0.710518 0.697197 0.683322 0.690697 0.695396 0.683242
          0.70464 0.684159 0.675139 0.691729 0.694486 0.701272
          0.682998 0.69114 0.686649 0.609367 0.682222 0.689226
          0.70278 0.688968 0.698981 0.693974 0.708019 0.696801
          0.691615 0.677978 0.702199 0.706435 0.705085 0.701701
          0.693341 0.696244 0.697532 0.706613 0.691386 0.718304
          0.701895 0.705994 0.709934 0.721146 0.719639 0.716593
          0.723473 0.714529 0.703133 0.715033 0.710667 0.716176
          0.655973 0.704794 0.70449 0.702549 0.685671 0.705072
          0.706439 0.69881 0.702496 0.705724 0.711624 0.693518
          0.690791 0.70592 0.697051 0.711556 0.704149 0.703189
          0.709149 0.705187 0.697694 0.696517 0.705936 0.703377
          0.703281 0.695505 0.685555 0.692824 0.689326 0.699841
          0.676591 0.709246 0.679067 0.647716 0.699602 0.70867
          0.697082 0.703109 0.699819 0.699612 0.708338 0.699762
          0.699626 0.70608 0.710092 0.698443 0.691058 0.710206
          0.701563 0.699757 0.697118 0.701038 0.706995 0.694335
          0.69073 0.685179 0.694277 0.693165 0.695841 0.685172
          0.685443 0.683779 0.710203 0.717321 0.689271 0.692105
          0.638306 0.706036 0.699584 0.696566 0.703088 0.700136
          0.696444 0.700522 0.701333 0.71119 0.693541 0.692924
          0.711279 0.704771 0.7005 0.706713 0.698051 0.704846
          0.691357 0.699963 0.691771 0.692099 0.697646 0.699455
          0.688374 0.702329 0.683886 0.696358 0.698184 0.681026
          0.683859 0.689267 0.692023 0.64973 0.714964 0.693363
          0.699897 0.700925 0.697724 0.70247 0.699625 0.711219
          0.703888 0.704725 0.701237 0.711004 0.693366 0.714355
          0.703012 0.72039 0.68502 0.691386 0.696803 0.719169
          0.712441 0.688527 0.718563 0.712959 0.706462 0.705964
          0.708064 0.707552 0.717016 0.714742 0.697764 0.713602
          0.647422 0.700797 0.696883 0.709506 0.701993 0.701568
          0.687533 0.704275 0.702769 0.713388 0.705286 0.700098
          0.683151 0.706612 0.690071 0.693619 0.706048 0.690164
          0.700747 0.687458 0.688989 0.687207 0.692782 0.686654
          0.708454 0.694193 0.686526 0.683605 0.68959 0.69851
          0.699256 0.694585 0.667704 0.639217 0.687394 0.700126
          0.698594 0.70763 0.695534 0.699571 0.702347 0.707179
          0.696838 0.699121 0.703158 0.698982 0.68935 0.706129
          0.70447 0.701183 0.699093 0.686455 0.693911 0.710469
          0.714375 0.708531 0.705881 0.712394 0.708413 0.695277
          0.708333 0.709753 0.707302 0.707116 0.710957 0.712018
          0.625259 0.685219 0.707267 0.697044 0.690922 0.684309
          0.690781 0.694583 0.699689 0.69731 0.686832 0.685432
          0.704957 0.706644 0.702441 0.684155 0.700101 0.69395
          0.698774 0.696365 0.716276 0.711827 0.710712 0.722461
          0.714631 0.716493 0.725768 0.72172 0.719395 0.702373
          0.703814 0.706816 0.712436 0.626478 0.683626 0.692116
          0.68168 0.69329 0.696882 0.694828 0.701146 0.692366
          0.708603 0.698868 0.682398 0.707493 0.68814 0.721632
          0.68808 0.706034 0.687068 0.708454 0.707406 0.720515
          0.707591 0.711171 0.698098 0.705137 0.722075 0.709971
          0.701839 0.7117 0.715599 0.697056 0.715645 0.711003
          0.626056 0.695667 0.679153 0.682369 0.689508 0.675118
          0.696421 0.706097 0.711226 0.700875 0.694584 0.693942
          0.692907 0.70477 0.691709 0.706703 0.698035 0.688542
          0.684174 0.707399 0.70783 0.720041 0.710727 0.702162
          0.706797 0.695025 0.703267 0.706757 0.707187 0.710904
          0.705595 0.707342 0.720559 0.666737 0.700646 0.693848
          0.704356 0.705672 0.688731 0.689211 0.697316 0.698664
          0.693464 0.701234 0.707627 0.700793 0.702436 0.694277
          0.713982 0.695881 0.704069 0.699763 0.698489 0.70019
          0.725763 0.709351 0.696116 0.707749 0.708031 0.718666
          0.698397 0.705586 0.72003 0.715522 0.71216 0.710803
          0.636952 0.680943 0.706115 0.702161 0.699794 0.700868
          0.685276 0.682509 0.686019 0.697951 0.713847 0.693364
          0.700872 0.690695 0.713417 0.690217 0.694824 0.700033
          0.692822 0.693553 0.714295 0.679525 0.704063 0.696446
          0.691429 0.693878 0.681953 0.679284 0.689772 0.692143
          0.699499 0.694775 0.692759 0.649153 0.705512 0.694508
          0.699052 0.695251 0.701171 0.714171 0.70206 0.693489
          0.697624 0.703048 0.696775 0.696737 0.710015 0.701119
          0.699238 0.697023 0.693009 0.698379 0.696936 0.706513
          0.693844 0.687309 0.6919 0.690798 0.700415 0.706375
          0.708645 0.702634 0.695522 0.690796 0.683828 0.695298
          0.637182 0.68895 0.694483 0.697747 0.694651 0.691042
          0.694869 0.707978 0.6836 0.687824 0.683239 0.682567
          0.70107 0.709099 0.707961 0.695477 0.69849 0.695308
          0.697118 0.69807 0.698323 0.695845 0.698483 0.70558
          0.699364 0.685336 0.695159 0.694544 0.710428 0.68842
          0.688193 0.691206 0.708412 0.621101 0.68696 0.690681
          0.708038 0.689855 0.688281 0.686078 0.686368 0.690845
          0.703094 0.718335 0.684536 0.710159 0.71581 0.7102
          0.689689 0.690728 0.707529 0.695106 0.699823 0.716217
          0.704185 0.707592 0.714454 0.723069 0.715022 0.71785
          0.714713 0.714538 0.69309 0.698525 0.710766 0.705539
          0.621183 0.684348 0.702551 0.697298 0.674615 0.680038
          0.686236 0.707612 0.697931 0.705521 0.699492 0.699538
          0.715155 0.708053 0.697266 0.706282 0.701129 0.701023
          0.704051 0.706719 0.704446 0.704442 0.692165 0.704553
          0.684571 0.683173 0.686516 0.696292 0.688167 0.704959
          0.693219 0.694278 0.714094 0.640361 0.690987 0.691918
          0.682783 0.686793 0.692184 0.683357 0.682483 0.70877
          0.703325 0.704548 0.699121 0.700441 0.702725 0.707781
          0.699006 0.700273 0.699704 0.689628 0.708879 0.696669
          0.692358 0.699874 0.667852 0.701474 0.6876 0.69142
          0.686559 0.690952 0.695199 0.707472 0.703513 0.687228
          0.657835 0.701097 0.708037 0.689835 0.704422 0.691921
          0.710957 0.693697 0.725803 0.700963 0.706723 0.697912
          0.68561 0.699673 0.702509 0.713443 0.702022 0.682837
          0.699965 0.697517 0.702013 0.705421 0.688316 0.713085
          0.721435 0.71542 0.708321 0.693637 0.708861 0.714492
          0.712677 0.705774 0.716486 0.651347 0.705787 0.694784
          0.700459 0.689812 0.687226 0.694308 0.696988 0.725403
          0.706828 0.702945 0.706146 0.682847 0.704567 0.69347
          0.714139 0.711392 0.68718 0.690348 0.69976 0.71157
          0.69999 0.695232 0.717234 0.693023 0.708632 0.700882
          0.700636 0.707622 0.711463 0.72108 0.71753 0.707029
          0.620226 0.686022 0.700776 0.692471 0.680974 0.686981
          0.692846 0.704639 0.69321 0.708832 0.682258 0.711994
          0.697797 0.706174 0.705112 0.695313 0.69582 0.706482
          0.690657 0.705632 0.697924 0.693228 0.690153 0.708384
          0.701652 0.701322 0.709393 0.70731 0.698646 0.686557
          0.704092 0.702217 0.696815 0.657091 0.705238 0.705526
          0.694736 0.697392 0.710338 0.707313 0.718653 0.69855
          0.713245 0.695679 0.69652 0.711422 0.692924 0.698975
          0.700642 0.69502 0.694447 0.703049 0.680605 0.710195
          0.709758 0.703437 0.709289 0.709641 0.708449 0.700022
          0.711979 0.707247 0.700588 0.716125 0.719246 0.711792
          0.629943 0.692534 0.684489 0.677257 0.680644 0.688246
          0.683631 0.703317 0.70884 0.696111 0.704011 0.70021
          0.697759 0.695811 0.691005 0.723498 0.698824 0.690035
          0.703116 0.705953 0.70897 0.690608 0.683839 0.686232
          0.687568 0.677272 0.686337 0.69188 0.687237 0.691129
          0.689417 0.69238 0.697682 0.650599 0.707249 0.691747
          0.696419 0.709125 0.688526 0.691754 0.70548 0.70146
          0.704707 0.693114 0.708 0.709807 0.69181 0.690209
          0.703309 0.700889 0.70659 0.699032 0.695815 0.685634
          0.690179 0.685314 0.689004 0.688505 0.687973 0.70049
          0.690823 0.696359 0.689458 0.685099 0.688425 0.68477
          0.648898 0.704187 0.703704 0.695733 0.707736 0.695316
          0.691656 0.705306 0.697946 0.698237 0.689263 0.704099
          0.698928 0.698888 0.70251 0.707173 0.70479 0.68973
          0.696352 0.699485 0.693552 0.696472 0.680696 0.698502
          0.695409 0.695547 0.684852 0.676121 0.684966 0.67954
          0.677335 0.70442 0.684417 0.666575 0.702696 0.696964
          0.695466 0.71107 0.667564 0.705347 0.708298 0.696916
          0.699445 0.700316 0.704893 0.705768 0.688474 0.695478
          0.698166 0.701076 0.687535 0.704923 0.703676 0.688284
          0.69511 0.678939 0.686883 0.693229 0.698754 0.685161
          0.688048 0.696439 0.698874 0.704275 0.680217 0.684004
          0.627969 0.682997 0.706008 0.696113 0.687609 0.684484
          0.696794 0.68885 0.680996 0.695933 0.701972 0.683005
          0.704066 0.687577 0.693897 0.697933 0.713474 0.702901
          0.707774 0.693185 0.716059 0.704823 0.716599 0.719458
          0.707467 0.721946 0.700333 0.723944 0.715001 0.710939
          0.714444 0.706999 0.708307 0.6351 0.675735 0.688034
          0.685067 0.675311 0.690977 0.706997 0.710367 0.691213
          0.7001 0.697009 0.691632 0.700284 0.705986 0.685964
          0.701922 0.69531 0.710374 0.694079 0.697236 0.688891
          0.686435 0.686916 0.698727 0.696353 0.690831 0.693094
          0.688003 0.688427 0.686942 0.695039 0.69545 0.689664
          0.637425 0.687846 0.691337 0.69955 0.698444 0.687207
          0.681892 0.682723 0.694658 0.683352 0.697526 0.701166
          0.711213 0.69534 0.697758 0.704253 0.703246 0.702277
          0.694619 0.699572 0.71639 0.721415 0.70422 0.723735
          0.714703 0.703181 0.706749 0.697372 0.709467 0.715059
          0.728567 0.709009 0.703859 0.630696 0.703544 0.70722
          0.696781 0.699534 0.708307 0.712593 0.703131 0.685629
          0.713407 0.687848 0.704449 0.71344 0.698909 0.710103
          0.69119 0.705888 0.706691 0.710092 0.700364 0.691913
          0.706218 0.697085 0.706357 0.70881 0.693159 0.687128
          0.695892 0.692268 0.69286 0.674964 0.697356 0.694372
          0.643122 0.683396 0.697452 0.704582 0.695584 0.703446
          0.706984 0.708555 0.694587 0.70213 0.701267 0.692105
          0.699391 0.698067 0.711195 0.6943 0.70114 0.707952
          0.697911 0.695078 0.691645 0.701524 0.701077 0.694405
          0.689386 0.713111 0.692493 0.703073 0.69287 0.698027
          0.689656 0.706481 0.694591 0.633721 0.701048 0.698384
          0.700162 0.697581 0.705271 0.702044 0.701882 0.693644
          0.690687 0.70349 0.690119 0.706493 0.713582 0.687367
          0.699623 0.698944 0.694697 0.709457 0.713292 0.698332
          0.687419 0.703192 0.689316 0.710156 0.694468 0.707917
          0.6927 0.705683 0.700514 0.690859 0.6933 0.698332
          0.642814 0.693544 0.702669 0.691654 0.683938 0.694987
          0.688253 0.687139 0.691249 0.691474 0.691487 0.709002
          0.706418 0.699293 0.687531 0.70653 0.709146 0.700297
          0.706343 0.697378 0.696414 0.697214 0.706254 0.707179
          0.701051 0.701977 0.696179 0.724995 0.725019 0.706437
          0.694773 0.710001 0.706341 0.637764 0.682263 0.68425
          0.691667 0.699692 0.695801 0.696214 0.691499 0.703406
          0.698933 0.704428 0.695833 0.698023 0.697143 0.689633
          0.699229 0.696941 0.6982 0.702121 0.706283 0.685714
          0.694054 0.692899 0.684131 0.690492 0.698929 0.687512
          0.692924 0.696095 0.6863 0.700086 0.694038 0.674861
          0.657886 0.702037 0.689068 0.697019 0.696063 0.690061
          0.705055 0.700206 0.703961 0.716004 0.685316 0.71813
          0.685607 0.700767 0.704392 0.700179 0.705846 0.683697
          0.693578 0.700933 0.674305 0.677158 0.684957 0.696824
          0.697128 0.686916 0.700434 0.681768 0.685196 0.696088
          0.701981 0.708036 0.685413 0.63288 0.695281 0.691688
          0.707247 0.699049 0.699314 0.698758 0.704904 0.682082
          0.699878 0.695458 0.705539 0.710085 0.704822 0.701689
          0.696337 0.69551 0.696414 0.710765 0.699739 0.691403
          0.708978 0.708704 0.703467 0.712485 0.703627 0.697667
          0.707603 0.698478 0.696581 0.692106 0.69904 0.69298
          0.654857 0.698286 0.705686 0.691084 0.707727 0.689198
          0.701274 0.697706 0.699234 0.692094 0.695578 0.710275
          0.696857 0.714391 0.705189 0.683035 0.69983 0.704745
          0.689238 0.68994 0.712925 0.711504 0.716221 0.710885
          0.721812 0.701617 0.692306 0.71125 0.714929 0.700864
          0.711969 0.718055 0.719216 0.626325 0.683771 0.698793
          0.680868 0.696175 0.681116 0.691479 0.691509 0.694671
          0.69301 0.698084 0.686323 0.705132 0.692344 0.699338
          0.697248 0.697189 0.71075 0.697839 0.701991 0.715358
          0.713345 0.714269 0.707231 0.710999 0.703847 0.706163
          0.698337 0.707982 0.710088 0.709565 0.718745 0.713361
          0.628444 0.690304 0.693805 0.671288 0.686245 0.69844
          0.693911 0.688094 0.690848 0.690043 0.698576 0.691394
          0.70571 0.704066 0.699353 0.688538 0.705383 0.694262
          0.702346 0.693243 0.722809 0.725114 0.708676 0.719212
          0.714793 0.717184 0.728722 0.701233 0.700872 0.705866
          0.707149 0.713819 0.71219 0.662168 0.706679 0.681524
          0.699751 0.697846 0.699972 0.701905 0.710886 0.701972
          0.698214 0.698565 0.691872 0.698419 0.706111 0.699186
          0.685973 0.712827 0.707109 0.691088 0.702762 0.718949
          0.698874 0.707721 0.70314 0.71446 0.714581 0.709739
          0.702269 0.700965 0.695769 0.704548 0.720689 0.703201
          0.652432 0.692373 0.711369 0.692391 0.694905 0.699042
          0.701307 0.70397 0.718369 0.680106 0.707042 0.70056
          0.715037 0.692061 0.701851 0.706956 0.702967 0.696338
          0.702131 0.706178 0.706309 0.694709 0.707241 0.708612
          0.706569 0.704633 0.714746 0.721298 0.70964 0.701957
          0.698715 0.709731 0.697337 0.637891 0.687917 0.673471
          0.679678 0.692286 0.685531 0.683805 0.713022 0.698565
          0.716584 0.681926 0.692315 0.700638 0.695076 0.693056
          0.692468 0.698609 0.6946 0.698969 0.715485 0.711367
          0.703585 0.716713 0.697233 0.705493 0.704618 0.701106
          0.70041 0.695886 0.716405 0.704756 0.709836 0.713854
          0.658625 0.69442 0.71789 0.688247 0.701603 0.694899
          0.721545 0.7111 0.694642 0.694943 0.698673 0.690544
          0.698869 0.686876 0.700697 0.710258 0.694807 0.710768
          0.692888 0.699035 0.715661 0.711097 0.706124 0.708731
          0.703705 0.708139 0.709101 0.702509 0.703577 0.697912
          0.702677 0.715001 0.720494 0.63342 0.676923 0.694885
          0.690835 0.68751 0.697751 0.686388 0.691805 0.691751
          0.700627 0.696133 0.695642 0.701119 0.704231 0.691043
          0.705238 0.696239 0.696189 0.704902 0.686961 0.708274
          0.718736 0.700517 0.698245 0.709516 0.720369 0.724402
          0.712082 0.707642 0.70668 0.694904 0.70469 0.703368
          0.654741 0.713698 0.705977 0.692382 0.708531 0.704268
          0.695985 0.709408 0.700115 0.689733 0.729162 0.698141
          0.683094 0.69972 0.702801 0.69932 0.706012 0.702089
          0.690251 0.694577 0.694815 0.710429 0.709474 0.704985
          0.726372 0.712359 0.698176 0.705654 0.69308 0.708992
          0.717827 0.712951 0.714066 0.625076 0.695437 0.689428
          0.704991 0.676212 0.691968 0.698131 0.693828 0.691004
          0.695013 0.694222 0.689095 0.704945 0.682621 0.694761
          0.698498 0.701747 0.708913 0.690502 0.692315 0.694612
          0.705495 0.703552 0.70605 0.711425 0.694553 0.703913
          0.70967 0.70295 0.683367 0.688178 0.702794 0.699842
          0.641455 0.700592 0.698578 0.696813 0.698594 0.694894
          0.709131 0.704601 0.705512 0.697447 0.712222 0.678955
          0.713218 0.69083 0.708215 0.715468 0.698315 0.709425
          0.704491 0.701601 0.692462 0.713135 0.700149 0.696259
          0.691102 0.697504 0.692824 0.693952 0.687294 0.692566
          0.684875 0.689752 0.70311 0.663499 0.699318 0.686334
          0.706763 0.699516 0.697026 0.701364 0.699663 0.702435
          0.696874 0.693753 0.712401 0.683332 0.708067 0.701121
          0.705066 0.703934 0.688859 0.699957 0.707616 0.701902
          0.691718 0.690513 0.680811 0.689455 0.697263 0.692657
          0.689414 0.70051 0.709545 0.705374 0.698413 0.687579
          0.660192 0.700461 0.710277 0.697444 0.705565 0.700578
          0.704344 0.694951 0.712164 0.695924 0.696426 0.719799
          0.68622 0.702594 0.687295 0.72191 0.703957 0.691524
          0.700364 0.708768 0.681487 0.700448 0.699913 0.691388