<?xml version="1.0"?>
<VTKFile type="PolyData" version="0.1" byte_order="LittleEndian" header_type="UInt32" compressor="vtkZLibDataCompressor">
  <PolyData>
    <Piece NumberOfPoints="7920" NumberOfVerts="0" NumberOfLines="0" NumberOfStrips="0" NumberOfPolys="0">
      <PointData Scalars="Calcium Concentration">
        <DataArray type="Float32" Name="Calcium Concentration" format="ascii" RangeMin="0.5795080065727234" RangeMax="0.7418709993362427">
          0.611542 0.714131 0.711172 0.697439 0.696305 0.69415
          0.697416 0.724013 0.698018 0.682522 0.70734 0.699342
          0.697569 0.704173 0.699788 0.702516 0.69455 0.70058
          0.69486 0.720158 0.694108 0.682873 0.685773 0.696704
          0.690793 0.68643 0.705887 0.692356 0.691491 0.69197
          0.715592 0.695743 0.678332 0.629811 0.695611 0.697168
          0.700372 0.690303 0.698405 0.6922 0.705285 0.69563
          0.703007 0.693632 0.703312 0.693825 0.689009 0.716191
          0.689464 0.709631 0.692018 0.693722 0.705101 0.686438
          0.694156 0.676275 0.688247 0.676268 0.691466 0.686459
          0.681423 0.687313 0.695976 0.69875 0.679836 0.693715
          0.60632 0.68908 0.705365 0.689546 0.692192 0.684859
          0.695265 0.693341 0.704021 0.70172 0.703568 0.698321
          0.689375 0.705751 0.699469 0.705412 0.707032 0.712883
          0.707079 0.700686 0.719215 0.703471 0.711329 0.700852
          0.713072 0.706431 0.699393 0.708384 0.711729 0.700317
          0.7147 0.705195 0.713172 0.607401 0.701908 0.709451
          0.709866 0.693246 0.690358 0.705765 0.69373 0.704724
          0.699611 0.692744 0.693949 0.703631 0.698549 0.708515
          0.695871 0.698214 0.699726 0.704331 0.708096 0.694184
          0.694533 0.692296 0.697925 0.686185 0.711635 0.705444
          0.690523 0.708629 0.697677 0.704895 0.697479 0.699988
          0.596799 0.679749 0.688483 0.700515 0.685733 0.692076
          0.690377 0.705184 0.69179 0.695926 0.702737 0.693976
          0.702667 0.699337 0.704822 0.694795 0.695548 0.692795
          0.696451 0.706432 0.691548 0.695634 0.694026 0.686792
          0.696131 0.691847 0.687603 0.701017 0.685737 0.688153
          0.693784 0.696197 0.695916 0.615168 0.70306 0.702688
          0.704001 0.701972 0.699078 0.700375 0.698905 0.716028
          0.7099 0.700391 0.703556 0.698185 0.700388 0.702825
          0.696994 0.705394 0.689858 0.712663 0.693011 0.700097
          0.701072 0.698016 0.6968 0.715782 0.700822 0.703938
          0.693218 0.695266 0.714446 0.730136 0.709162 0.703733
          0.607655 0.672434 0.687412 0.69139 0.691792 0.699483
          0.683905 0.695641 0.71047 0.71101 0.694075 0.696814
          0.696518 0.714073 0.694956 0.702588 0.690622 0.704319
          0.705751 0.688796 0.705504 0.707621 0.700806 0.708748
          0.699152 0.718871 0.708764 0.717342 0.722885 0.705585
          0.728426 0.708542 0.713715 0.605014 0.679333 0.678761
          0.691942 0.681592 0.698296 0.675795 0.674494 0.71172
          0.704202 0.686075 0.701347 0.701513 0.698934 0.700877
          0.689653 0.701911 0.700595 0.704755 0.698978 0.686226
          0.68363 0.680781 0.687485 0.69749 0.69342 0.6984
          0.684392 0.696028 0.673421 0.71096 0.686649 0.6922
          0.603965 0.702684 0.687601 0.697757 0.693152 0.692081
          0.685919 0.70278 0.696821 0.691886 0.703209 0.704969
          0.697493 0.689861 0.695644 0.704748 0.705877 0.685931
          0.695897 0.699253 0.703244 0.69315 0.708045 0.703061
          0.710517 0.717839 0.711201 0.699458 0.702678 0.707922
          0.715659 0.711715 0.715219 0.622509 0.700459 0.699446
          0.705789 0.704059 0.692253 0.705204 0.698608 0.69874
          0.695148 0.710728 0.695563 0.705207 0.698885 0.700184
          0.691959 0.699584 0.699256 0.68986 0.706874 0.703592
          0.695357 0.70623 0.702195 0.705623 0.711013 0.706352
          0.706115 0.701099 0.70724 0.720188 0.697117 0.704018
          0.6297 0.695934 0.701441 0.69838 0.698131 0.692327
          0.705821 0.694147 0.702409 0.694093 0.702863 0.708755
          0.695656 0.702788 0.698986 0.71294 0.694557 0.701053
          0.695243 0.697075 0.709871 0.705876 0.722749 0.698899
          0.695759 0.714187 0.707784 0.701095 0.702193 0.706447
          0.718553 0.718225 0.710395 0.608385 0.683365 0.689277
          0.683949 0.678485 0.686821 0.68573 0.708391 0.691325
          0.696947 0.699393 0.695215 0.702077 0.704433 0.701216
          0.695048 0.705935 0.710439 0.697717 0.710426 0.697041
          0.691279 0.691615 0.674379 0.680799 0.693052 0.67803
          0.687715 0.689528 0.690535 0.704323 0.69577 0.706214
          0.617037 0.694351 0.688424 0.724281 0.692827 0.710559
          0.707253 0.694324 0.701472 0.688162 0.688367 0.696347
          0.708684 0.695737 0.69095 0.697018 0.696789 0.703112
          0.695091 0.70959 0.691894 0.702939 0.690619 0.687438
          0.695816 0.696567 0.687866 0.698614 0.6958 0.700026
          0.701009 0.693094 0.6927 0.619184 0.694266 0.696456
          0.713443 0.70627 0.700163 0.708301 0.719425 0.703436
          0.696619 0.695866 0.700178 0.691651 0.696363 0.710932
          0.699055 0.69046 0.697835 0.703294 0.683421 0.695185
          0.700738 0.686446 0.682215 0.684975 0.693499 0.691233
          0.691069 0.691912 0.67958 0.698862 0.685392 0.693712
          0.599315 0.67301 0.696187 0.690073 0.682815 0.675903
          0.681401 0.7035 0.676966 0.693372 0.708419 0.68985
          0.703149 0.698838 0.706578 0.701338 0.709456 0.707564
          0.697245 0.69626 0.69638 0.708134 0.70305 0.712473
          0.70639 0.703151 0.713607 0.725227 0.710743 0.718187
          0.708284 0.711483 0.713033 0.619967 0.695987 0.699144
          0.70792 0.703744 0.701199 0.698803 0.703579 0.702399
          0.708889 0.701744 0.698153 0.701781 0.700084 0.693903
          0.700658 0.696763 0.700345 0.698615 0.704244 0.681515
          0.68544 0.691187 0.68628 0.683909 0.695852 0.690778
          0.690804 0.687922 0.685385 0.701662 0.676652 0.683331
          0.603007 0.692418 0.678375 0.687643 0.686594 0.692814
          0.688782 0.70125 0.695337 0.696459 0.697396 0.695064
          0.706314 0.689524 0.689892 0.693941 0.697128 0.717647
          0.68874 0.6916 0.69234 0.689614 0.697301 0.682782
          0.691609 0.689735 0.692095 0.695007 0.695391 0.704164
          0.700184 0.691577 0.688934 0.60927 0.688858 0.68191
          0.684619 0.692824 0.684577 0.687162 0.710959 0.700038
          0.702534 0.690214 0.697915 0.701022 0.713883 0.688198
          0.712043 0.697772 0.698777 0.709955 0.693609 0.708614
          0.723038 0.700443 0.707367 0.711038 0.714258 0.698808
          0.694126 0.711116 0.701673 0.725663 0.700847 0.719699
          0.589219 0.684261 0.688156 0.681598 0.694403 0.678974
          0.695036 0.710147 0.701376 0.699854 0.710861 0.709061
          0.702865 0.705322 0.71105 0.701545 0.698305 0.695281
          0.688723 0.699728 0.688607 0.707637 0.679895 0.685342
          0.697901 0.689531 0.690129 0.684349 0.705884 0.681558
          0.704657 0.699461 0.714308 0.623263 0.699396 0.702578
          0.703342 0.697583 0.695981 0.702894 0.696422 0.702829
          0.697994 0.697472 0.711283 0.697156 0.714164 0.704594
          0.713 0.710153 0.696018 0.704591 0.694155 0.697704
          0.685821 0.688098 0.683785 0.685922 0.687608 0.689416
          0.693567 0.688039 0.687061 0.692344 0.681733 0.684906
          0.620854 0.711585 0.706953 0.715147 0.708872 0.687359
          0.694533 0.695863 0.718317 0.695478 0.704904 0.704476
          0.694165 0.697062 0.689469 0.710442 0.702925 0.705231
          0.690073 0.697124 0.691743 0.693965 0.675736 0.694076
          0.692973 0.694463 0.688354 0.691031 0.692772 0.695458
          0.705644 0.694973 0.687614 0.620565 0.710013 0.697811
          0.697502 0.692947 0.697981 0.716966 0.683973 0.710281
          0.706968 0.692975 0.707608 0.698865 0.703773 0.709366
          0.697114 0.701522 0.695153 0.7085 0.687778 0.706194
          0.703527 0.712834 0.708729 0.707855 0.715127 0.706681
          0.70412 0.721532 0.713508 0.71002 0.70554 0.69982
          0.618928 0.706205 0.696437 0.729456 0.698797 0.689132
          0.689328 0.700546 0.710324 0.692631 0.699268 0.697733
          0.698572 0.706119 0.679927 0.72018 0.709788 0.685724
          0.69021 0.692824 0.728882 0.688581 0.705546 0.700059
          0.709861 0.718158 0.708863 0.712732 0.714946 0.723239
          0.728271 0.711257 0.716799 0.622409 0.714214 0.694875
          0.697165 0.69697 0.697894 0.70168 0.704354 0.711591
          0.70312 0.700002 0.697672 0.709904 0.700782 0.703844
          0.712794 0.685632 0.710158 0.695691 0.691784 0.704532
          0.712712 0.724817 0.70333 0.71532 0.713047 0.713572
          0.71461 0.709074 0.704155 0.726032 0.708692 0.700227
          0.615181 0.685617 0.699764 0.698971 0.706069 0.697092
          0.693598 0.696054 0.71855 0.704832 0.689534 0.689216
          0.701752 0.688281 0.712643 0.695972 0.702253 0.686293
          0.697432 0.706691 0.687659 0.681787 0.684241 0.689039
          0.693193 0.705279 0.690411 0.690877 0.679888 0.694545
          0.690608 0.689482 0.687708 0.620829 0.693896 0.699019
          0.680185 0.700028 0.694745 0.714051 0.703264 0.703653
          0.695661 0.700293 0.690378 0.689159 0.692537 0.717579
          0.699748 0.698934 0.700016 0.700779 0.704004 0.694429
          0.684798 0.687358 0.691503 0.681697 0.696462 0.685761
          0.688329 0.703035 0.700896 0.688876 0.695372 0.702509
          0.612175 0.710812 0.697064 0.716363 0.699782 0.691238
          0.694796 0.694055 0.720948 0.699013 0.700004 0.698588
          0.688915 0.708592 0.692097 0.710027 0.697711 0.699138
          0.702209 0.697546 0.698936 0.68666 0.683612 0.679165
          0.694504 0.686481 0.685854 0.682781 0.679083 0.687271
          0.696103 0.686612 0.679592 0.604163 0.695076 0.690304
          0.688403 0.700823 0.693176 0.693933 0.706345 0.693171
          0.682538 0.697029 0.69278 0.688843 0.710458 0.700249
          0.702523 0.708651 0.684206 0.714916 0.707287 0.67812
          0.682923 0.687438 0.681689 0.693011 0.688484 0.689733
          0.690393 0.694595 0.712461 0.706888 0.69398 0.695856
          0.616599 0.714289 0.708383 0.70338 0.703038 0.705247
          0.697206 0.697471 0.706091 0.716259 0.703704 0.698758
          0.705596 0.696827 0.709153 0.707215 0.685391 0.702979
          0.695396 0.693957 0.694324 0.691485 0.687181 0.69279
          0.693532 0.678901 0.686471 0.692679 0.695905 0.684252
          0.69843 0.687699 0.692296 0.614974 0.711559 0.717086
          0.699799 0.705477 0.68498 0.704203 0.695819 0.709432
          0.691963 0.706465 0.697021 0.693027 0.703615 0.697045
          0.701263 0.69874 0.704715 0.703047 0.689274 0.696078
          0.696755 0.676993 0.69497 0.691557 0.693208 0.68625
          0.69337 0.697782 0.692011 0.701423 0.694694 0.686207
          0.591777 0.685152 0.690122 0.698559 0.692731 0.68861
          0.693856 0.696687 0.685111 0.708738 0.697212 0.707914
          0.688759 0.694421 0.691994 0.701936 0.713968 0.692678
          0.710327 0.692874 0.718613 0.7029 0.705404 0.715523
          0.725576 0.707955 0.714315 0.705875 0.709085 0.705919
          0.694868 0.714883 0.712588 0.591345 0.692787 0.686535
          0.687234 0.687418 0.68379 0.698757 0.689591 0.685586
          0.693809 0.717881 0.699896 0.704859 0.700551 0.685326
          0.710494 0.706583 0.691179 0.711013 0.694339 0.71288
          0.714591 0.706992 0.695327 0.701643 0.692723 0.70119
          0.710873 0.707666 0.706684 0.71926 0.726436 0.703666
          0.628818 0.705876 0.681168 0.701632 0.702899 0.69496
          0.704248 0.687509 0.710869 0.701958 0.711364 0.694618
          0.685332 0.699203 0.716121 0.709181 0.713737 0.692466
          0.697322 0.694524 0.702747 0.7033 0.6986 0.697247
          0.698121 0.714127 0.705734 0.706615 0.710849 0.715103
          0.720694 0.709688 0.700485 0.604967 0.697037 0.683563
          0.695648 0.670626 0.685985 0.688583 0.706104 0.68381
          0.713146 0.696681 0.686697 0.699612 0.70804 0.690778
          0.700179 0.700393 0.693009 0.691904 0.712121 0.686937
          0.697326 0.689935 0.707587 0.701913 0.707593 0.689432
          0.702119 0.690253 0.692673 0.689544 0.696894 0.698621
          0.608748 0.693087 0.712524 0.677368 0.684799 0.68792
          0.698362 0.695059 0.697267 0.688121 0.700921 0.687688
          0.713354 0.699448 0.69815 0.699064 0.69789 0.698751
          0.694372 0.706348 0.699938 0.699994 0.68717 0.708801
          0.695826 0.690757 0.695459 0.683634 0.695181 0.688199
          0.698284 0.694132 0.688131 0.579508 0.675445 0.696975
          0.701138 0.695812 0.686986 0.690404 0.706573 0.690108
          0.692168 0.693503 0.69256 0.694664 0.689742 0.703287
          0.693238 0.701074 0.694565 0.68711 0.696766 0.700874
          0.69588 0.688489 0.700614 0.705441 0.708288 0.696274
          0.688233 0.695225 0.695903 0.682033 0.689257 0.691978
          0.602373 0.68518 0.704662 0.700588 0.695523 0.694787
          0.703158 0.704766 0.6889 0.704721 0.709095 0.684848
          0.703952 0.708511 0.696106 0.704727 0.70341 0.697721
          0.712564 0.690114 0.683532 0.697261 0.699349 0.684837
          0.701468 0.697083 0.67243 0.693795 0.700884 0.698254
          0.683912 0.689042 0.682243 0.587125 0.686044 0.699904
          0.689583 0.675503 0.697847 0.690336 0.696187 0.682898
          0.699375 0.685008 0.705793 0.713555 0.700905 0.69662
          0.695186 0.705421 0.717365 0.705361 0.693445 0.709983
          0.704503 0.719198 0.713136 0.709567 0.707998 0.723645
          0.729 0.705813 0.694649 0.709007 0.711143 0.719216
          0.623624 0.709852 0.704364 0.707236 0.691863 0.70552
          0.717839 0.702568 0.704595 0.71158 0.695949 0.693696
          0.694828 0.711163 0.695732 0.701919 0.701697 0.707963
          0.703564 0.701344 0.708524 0.700293 0.707988 0.701294
          0.701691 0.687812 0.692819 0.695773 0.691685 0.689093
          0.689624 0.706123 0.6815 0.616079 0.701347 0.696355
          0.705959 0.697423 0.708257 0.692118 0.701483 0.699815
          0.692535 0.710201 0.697188 0.700009 0.688426 0.709957
          0.698198 0.702425 0.702278 0.714688 0.703609 0.686065
          0.697492 0.685415 0.69043 0.689268 0.688712 0.682571
          0.688265 0.692902 0.700379 0.724007 0.690998 0.699255
          0.60884 0.710331 0.696525 0.708355 0.712899 0.700147
          0.708022 0.687515 0.700922 0.70871 0.695 0.686916
          0.714579 0.698953 0.705304 0.716496 0.696367 0.696511
          0.701435 0.707839 0.693703 0.702917 0.692391 0.691431
          0.691253 0.695936 0.688438 0.689614 0.686929 0.696643
          0.687697 0.690712 0.69387 0.613627 0.725009 0.694587
          0.699792 0.69435 0.699638 0.69617 0.70388 0.700763
          0.697208 0.704573 0.701439 0.71007 0.702374 0.706006
          0.695711 0.723105 0.696794 0.692077 0.701769 0.721941
          0.707164 0.693263 0.716912 0.708018 0.709462 0.702569
          0.7169 0.713449 0.702211 0.70563 0.700556 0.716451
          0.61546 0.713152 0.702105 0.705155 0.702798 0.696896
          0.699073 0.702068 0.715324 0.696228 0.714667 0.698533
          0.689749 0.712667 0.701872 0.683078 0.70293 0.69407
          0.713727 0.698196 0.689752 0.695533 0.696507 0.690128
          0.692733 0.694734 0.691958 0.679662 0.681881 0.698766
          0.701073 0.691461 0.673735 0.610743 0.700026 0.704912
          0.70521 0.699174 0.696574 0.700685 0.704755 0.69445
          0.694272 0.701152 0.708171 0.686161 0.69899 0.700737
          0.697356 0.701491 0.687016 0.696431 0.700237 0.712261
          0.712741 0.709147 0.701603 0.710732 0.715588 0.702078
          0.719152 0.714351 0.713225 0.710666 0.711977 0.713208
          0.595648 0.676875 0.717956 0.689212 0.693122 0.68629
          0.687906 0.697274 0.696356 0.703026 0.680922 0.685038
          0.712775 0.695836 0.712086 0.683879 0.701745 0.700086
          0.694711 0.692912 0.722694 0.706034 0.708775 0.717291
          0.71 0.707576 0.726374 0.72209 0.720657 0.711669
          0.705451 0.711906 0.723081 0.600205 0.684416 0.687597
          0.678487 0.690595 0.694891 0.688423 0.70411 0.693171
          0.704851 0.703155 0.688093 0.707642 0.686295 0.719457
          0.692475 0.71275 0.690766 0.698616 0.704498 0.712997
          0.718589 0.70906 0.701163 0.709609 0.717967 0.712037
          0.707382 0.715865 0.703755 0.700464 0.707178 0.708114
          0.593138 0.6944 0.680677 0.686741 0.695685 0.681529
          0.698145 0.694929 0.706997 0.69912 0.704566 0.70669
          0.682242 0.706763 0.684345 0.698734 0.701531 0.693394
          0.691617 0.699122 0.703832 0.717897 0.707431 0.700682
          0.704867 0.699733 0.70998 0.701728 0.711206 0.709917
          0.710699 0.719204 0.71767 0.635206 0.702943 0.68943
          0.704107 0.705074 0.697389 0.692157 0.705942 0.714624
          0.701122 0.70383 0.704632 0.700579 0.702999 0.705715
          0.710497 0.700901 0.702846 0.697895 0.699903 0.701184
          0.706585 0.717826 0.697309 0.699742 0.706744 0.717873
          0.711607 0.708259 0.71033 0.721581 0.710487 0.714043
          0.597652 0.673517 0.708568 0.701909 0.705209 0.686904
          0.681197 0.683996 0.683245 0.694433 0.708901 0.679328
          0.705293 0.699636 0.71627 0.690835 0.694695 0.715525
          0.695292 0.698746 0.708226 0.689922 0.702293 0.687844
          0.703783 0.700911 0.68358 0.684979 0.688462 0.691207
          0.701021 0.690518 0.687281 0.620067 0.698064 0.697931
          0.704723 0.691513 0.699732 0.711009 0.701604 0.696291
          0.699364 0.704205 0.692042 0.691582 0.701336 0.713519
          0.692252 0.69447 0.696856 0.697307 0.69301 0.69908
          0.698525 0.681717 0.699069 0.692703 0.697851 0.710373
          0.704779 0.696913 0.700927 0.696188 0.687643 0.690867
          0.59388 0.687566 0.681601 0.709226 0.690434 0.694221
          0.703522 0.701322 0.698217 0.703186 0.682752 0.679171
          0.702583 0.698499 0.713749 0.694661 0.698925 0.697787
          0.697936 0.698196 0.698571 0.688953 0.707599 0.704783
          0.694784 0.69444 0.691017 0.695755 0.700099 0.692121
          0.683438 0.702158 0.704914 0.590827 0.697649 0.697706
          0.699141 0.681344 0.682933 0.685325 0.689906 0.69811
          0.696988 0.714201 0.680101 0.709435 0.700393 0.70687
          0.688131 0.698597 0.698404 0.696688 0.700381 0.715722
          0.707919 0.713849 0.720407 0.724311 0.709695 0.71091
          0.719546 0.706411 0.699096 0.700239 0.706411 0.708417
          0.597834 0.686651 0.700033 0.69169 0.682867 0.68512
          0.686048 0.710475 0.689189 0.706365 0.697464 0.693461
          0.707482 0.694694 0.696266 0.693709 0.704501 0.704608
          0.708481 0.697568 0.712848 0.705771 0.697555 0.710496
          0.687846 0.687307 0.691823 0.698499 0.687969 0.70338
          0.699798 0.677883 0.704075 0.609757 0.690584 0.685352
          0.690563 0.691641 0.692691 0.693968 0.678167 0.700595
          0.698653 0.710847 0.706353 0.696451 0.710735 0.712135
          0.710681 0.70612 0.695691 0.690403 0.712933 0.698829
          0.68658 0.709658 0.679931 0.695454 0.689317 0.686647
          0.685929 0.696019 0.687782 0.706789 0.692269 0.681212
          0.619686 0.699632 0.690511 0.698999 0.710419 0.700331
          0.704895 0.681201 0.714425 0.688601 0.692714 0.694995
          0.686676 0.706049 0.696295 0.722039 0.703458 0.679343
          0.705055 0.695675 0.697891 0.70933 0.692218 0.713237
          0.718845 0.715086 0.703454 0.693075 0.712279 0.705071
          0.725406 0.720679 0.722221 0.616873 0.705295 0.693783
          0.71181 0.693093 0.701054 0.69409 0.701553 0.710577
          0.705365 0.703521 0.699945 0.689285 0.704811 0.689479
          0.705101 0.711732 0.690303 0.695029 0.693344 0.713503
          0.692529 0.697947 0.700703 0.705579 0.696612 0.703163
          0.706856 0.720725 0.711196 0.729642 0.712253 0.710184
          0.59372 0.680003 0.707096 0.687452 0.680264 0.684949
          0.696808 0.705087 0.688065 0.702371 0.678869 0.696658
          0.706421 0.68795 0.707553 0.700414 0.700263 0.701171
          0.69133 0.706468 0.698514 0.704049 0.690186 0.705543
          0.703116 0.697308 0.709572 0.71083 0.70037 0.700338
          0.700941 0.694694 0.70664 0.616032 0.70565 0.697318
          0.694415 0.698966 0.707453 0.692303 0.704206 0.691166
          0.705391 0.702423 0.705602 0.696516 0.7009 0.699965
          0.692489 0.704425 0.692327 0.70096 0.687346 0.689516
          0.706659 0.706912 0.703733 0.710702 0.706988 0.700541
          0.709541 0.712221 0.70571 0.712299 0.716817 0.706096
          0.597575 0.686317 0.689246 0.689914 0.68578 0.677798
          0.686275 0.70407 0.695152 0.691044 0.701453 0.700069
          0.703648 0.683653 0.69668 0.710952 0.700095 0.69345
          0.690494 0.707327 0.703872 0.685714 0.686374 0.688451
          0.688861 0.674153 0.684925 0.696874 0.682541 0.693186
          0.691347 0.687824 0.696872 0.607889 0.711432 0.698611
          0.691524 0.720142 0.691227 0.706424 0.699755 0.701096
          0.690306 0.694749 0.709298 0.694442 0.696863 0.696883
          0.703891 0.687852 0.706539 0.704957 0.694482 0.682749
          0.696679 0.67715 0.695431 0.691135 0.695411 0.703244
          0.682747 0.702675 0.691566 0.689661 0.695058 0.691988
          0.625143 0.703459 0.702835 0.689722 0.710562 0.686857
          0.702591 0.700019 0.684882 0.696961 0.698691 0.710312
          0.693231 0.707397 0.707867 0.707651 0.703801 0.705757
          0.695183 0.6937 0.696678 0.699836 0.678655 0.686518
          0.694056 0.703565 0.683732 0.679327 0.696279 0.681854
          0.685792 0.709114 0.684002 0.629879 0.71113 0.702973
          0.697756 0.716 0.682666 0.708014 0.709952 0.705278
          0.69907 0.699059 0.699261 0.695674 0.697905 0.688165
          0.692015 0.70526 0.688316 0.705975 0.701047 0.690583
          0.685193 0.67364 0.693414 0.689449 0.696801 0.682
          0.701813 0.705029 0.699508 0.702557 0.68224 0.681778
          0.594585 0.674927 0.700763 0.695395 0.690041 0.678201
          0.691934 0.686007 0.681544 0.704061 0.69645 0.674132
          0.717339 0.684974 0.692681 0.694211 0.709168 0.711534
          0.699287 0.694584 0.713189 0.71187 0.715082 0.720504
          0.710085 0.71888 0.699009 0.723322 0.711918 0.706073
          0.710076 0.708676 0.712523 0.594248 0.676599 0.692771
          0.682121 0.683141 0.686513 0.695775 0.711509 0.697026
          0.715664 0.694121 0.694887 0.69618 0.703726 0.69325
          0.696747 0.70232 0.716323 0.690754 0.696633 0.683171
          0.69159 0.693809 0.696527 0.698117 0.690188 0.692655
          0.686362 0.689481 0.6903 0.684653 0.696692 0.686027
          0.600547 0.693198 0.705636 0.692731 0.699342 0.681244
          0.684881 0.691302 0.689194 0.697315 0.691296 0.701528
          0.703396 0.702671 0.699325 0.705874 0.696923 0.6941
          0.695993 0.70431 0.710598 0.722055 0.706526 0.715944
          0.702398 0.709474 0.720294 0.70201 0.712825 0.714814
          0.732238 0.703077 0.704101 0.598353 0.697823 0.706376
          0.691802 0.697581 0.695207 0.701812 0.695839 0.693263
          0.713246 0.688198 0.690979 0.709083 0.696862 0.701036
          0.689709 0.708003 0.706891 0.696529 0.706224 0.703032
          0.707583 0.700865 0.704702 0.708518 0.692933 0.690579
          0.696511 0.69463 0.685097 0.676352 0.688882 0.685463
          0.614682 0.692451 0.707166 0.708497 0.69349 0.702611
          0.713116 0.698514 0.697328 0.698661 0.696802 0.694603
          0.687624 0.698309 0.712486 0.697291 0.691825 0.706418
          0.701893 0.697419 0.697067 0.703873 0.703823 0.6983
          0.692396 0.710673 0.694594 0.703913 0.68831 0.699369
          0.699596 0.692463 0.682123 0.615233 0.690888 0.703437
          0.706532 0.691053 0.704214 0.695759 0.708283 0.680853
          0.694697 0.6993 0.688795 0.705872 0.712171 0.700019
          0.693985 0.692546 0.689288 0.69598 0.698081 0.706798
          0.681217 0.705112 0.688066 0.712672 0.70754 0.705188
          0.696791 0.70853 0.697168 0.685933 0.688318 0.693761
          0.622621 0.695456 0.693302 0.700115 0.679498 0.697027
          0.683678 0.696517 0.693468 0.682341 0.694627 0.69572
          0.707009 0.700238 0.689995 0.698785 0.704706 0.703935
          0.707719 0.694189 0.696916 0.702072 0.707966 0.698266
          0.706092 0.694598 0.690404 0.721903 0.718108 0.704513
          0.701301 0.694923 0.706026 0.614512 0.689989 0.680479
          0.691255 0.697316 0.689835 0.695673 0.689053 0.711153
          0.683632 0.69659 0.6907 0.68919 0.704644 0.697389
          0.694079 0.697338 0.701578 0.705932 0.714288 0.6837
          0.688872 0.701039 0.682558 0.689516 0.699902 0.687254
          0.688195 0.690728 0.676256 0.708157 0.692024 0.68724
          0.621516 0.713558 0.703096 0.702067 0.706203 0.705322
          0.700001 0.694474 0.700457 0.700496 0.698302 0.700987
          0.680137 0.705676 0.69196 0.701798 0.695285 0.690819
          0.703405 0.714362 0.67633 0.672493 0.683948 0.690751
          0.698541 0.690849 0.688195 0.690848 0.673497 0.697907
          0.696107 0.71045 0.68777 0.609649 0.697337 0.689353
          0.706831 0.688053 0.694955 0.695216 0.699686 0.691877
          0.696665 0.692362 0.701403 0.711292 0.691103 0.700481
          0.700718 0.688823 0.695441 0.696353 0.701948 0.692519
          0.710927 0.699138 0.70009 0.71571 0.70141 0.701445
          0.700758 0.700397 0.689976 0.68717 0.692396 0.693341
          0.629888 0.698552 0.710531 0.693351 0.699708 0.699172
          0.69878 0.700328 0.706172 0.696175 0.697151 0.696987
          0.700377 0.703531 0.703259 0.691982 0.701127 0.704873
          0.683492 0.694003 0.708089 0.705127 0.713056 0.71551
          0.714809 0.70572 0.700248 0.70811 0.720418 0.700607
          0.709582 0.710325 0.706771 0.593635 0.683997 0.69116
          0.686781 0.68831 0.683948 0.698429 0.68756 0.699461
          0.696537 0.694034 0.694915 0.701867 0.692074 0.692376
          0.697267 0.700649 0.716031 0.702051 0.690746 0.718872
          0.715991 0.719686 0.716181 0.711622 0.69941 0.698762
          0.710942 0.695236 0.708219 0.715432 0.726191 0.709636
          0.600288 0.677922 0.694555 0.671802 0.685309 0.701965
          0.698444 0.684827 0.699265 0.68274 0.692341 0.694483
          0.704141 0.708139 0.70224 0.689093 0.710571 0.694192
          0.696945 0.684929 0.705077 0.715309 0.70662 0.711689
          0.708336 0.714136 0.711739 0.709348 0.706319 0.715248
          0.703362 0.726103 0.716595 0.61559 0.714404 0.69874
          0.698903 0.700684 0.696816 0.714663 0.716161 0.692947
          0.695586 0.702355 0.69123 0.701638 0.700584 0.70198
          0.689175 0.710615 0.707953 0.697932 0.70294 0.706198
          0.702913 0.711839 0.706803 0.703902 0.708191 0.709019
          0.709106 0.707982 0.704762 0.698074 0.717884 0.708989
          0.618895 0.687151 0.713389 0.690332 0.70097 0.692531
          0.707006 0.704173 0.719552 0.683428 0.701243 0.707522
          0.710313 0.690552 0.703317 0.712841 0.698812 0.70031
          0.704805 0.687446 0.712794 0.713303 0.708034 0.707279
          0.712035 0.699282 0.715204 0.713416 0.697643 0.697612
          0.698771 0.697291 0.701283 0.606243 0.681884 0.676549
          0.690292 0.701368 0.688071 0.67898 0.711545 0.690959
          0.711083 0.684658 0.708339 0.701307 0.705857 0.701308
          0.693512 0.690621 0.705702 0.700659 0.713453 0.710952
          0.711065 0.715466 0.69923 0.705813 0.718997 0.704338
          0.698596 0.70118 0.718802 0.712537 0.705392 0.709904
          0.619281 0.692301 0.708595 0.698643 0.706881 0.697326
          0.708493 0.707691 0.683006 0.699831 0.699697 0.69505
          0.70965 0.688658 0.703243 0.711421 0.703285 0.707565
          0.695424 0.702228 0.722865 0.717866 0.706211 0.700881
          0.709448 0.701214 0.70562 0.708198 0.702538 0.702636
          0.70479 0.710246 0.718672 0.591814 0.674738 0.6975
          0.689434 0.685935 0.698823 0.681127 0.686865 0.701952
          0.704672 0.702823 0.702348 0.69562 0.699057 0.694331
          0.70016 0.707792 0.694568 0.712485 0.68882 0.718974
          0.723372 0.698069 0.697622 0.707739 0.724874 0.709453
          0.710392 0.707675 0.709572 0.693805 0.704619 0.710214
          0.619117 0.721959 0.689573 0.70314 0.700914 0.687303
          0.701273 0.694197 0.69342 0.699152 0.720074 0.701336
          0.691487 0.703848 0.695724 0.711545 0.704793 0.689329
          0.69886 0.698379 0.704294 0.706285 0.707969 0.702841
          0.721293 0.711273 0.700216 0.70473 0.694548 0.709368
          0.71839 0.711016 0.723314 0.602082 0.68921 0.696113
          0.702825 0.689341 0.69349 0.693198 0.705781 0.696328
          0.695696 0.697386 0.689546 0.708235 0.685587 0.707439
          0.702475 0.700276 0.711441 0.700362 0.695454 0.697473
          0.700978 0.700208 0.708529 0.711531 0.702029 0.704521
          0.713067 0.701155 0.693777 0.695137 0.699968 0.701762
          0.616232 0.698489 0.691007 0.701504 0.69437 0.695606
          0.70425 0.7077 0.700081 0.707949 0.704636 0.689337
          0.708269 0.700105 0.702844 0.715252 0.69463 0.702369
          0.694966 0.697739 0.697299 0.708855 0.709192 0.700462
          0.692038 0.695085 0.686745 0.697472 0.689981 0.696284
          0.689881 0.693138 0.690252 0.630003 0.70239 0.698779
          0.702122 0.693555 0.698382 0.694107 0.698493 0.705101
          0.698043 0.69771 0.711874 0.683991 0.708863 0.704802
          0.709686 0.699823 0.684321 0.707569 0.705598 0.704503
          0.695336 0.689993 0.683792 0.694861 0.706231 0.690337
          0.702046 0.692249 0.701707 0.709156 0.695936 0.696632
          0.61719 0.705803 0.708712 0.710229 0.69678 0.694892
          0.703598 0.699386 0.705911 0.698866 0.685624 0.706166
          0.689058 0.708937 0.693395 0.710859 0.709009 0.685819
          0.710075 0.713299 0.692012 0.685928 0.712781 0.688462