<?xml version="1.0"?>
<VTKFile type="PolyData" version="0.1" byte_order="LittleEndian" header_type="UInt32" compressor="vtkZLibDataCompressor">
  <PolyData>
    <Piece NumberOfPoints="7920" NumberOfVerts="0" NumberOfLines="0" NumberOfStrips="0" NumberOfPolys="0">
      <PointData Scalars="Calcium Concentration">
        <DataArray type="Float32" Name="Calcium Concentration" format="ascii" RangeMin="0.5493890047073364" RangeMax="0.7329970002174377">
          0.57255 0.714034 0.702221 0.699359 0.70689 0.700681
          0.687878 0.720615 0.700545 0.681341 0.699461 0.696171
          0.693588 0.70215 0.699842 0.704209 0.688597 0.699468
          0.698762 0.701659 0.692865 0.679942 0.687913 0.691571
          0.683432 0.688504 0.695696 0.687993 0.693862 0.696727
          0.700739 0.688343 0.683769 0.58016 0.697434 0.706654
          0.704083 0.692468 0.693835 0.695131 0.713451 0.698965
          0.707362 0.689951 0.710392 0.692198 0.691707 0.709069
          0.684868 0.70799 0.697168 0.693093 0.708667 0.696595
          0.697883 0.680323 0.683114 0.691388 0.70152 0.703178
          0.688194 0.690681 0.697355 0.689709 0.686872 0.688645
          0.574601 0.693604 0.704285 0.690573 0.690134 0.686445
          0.696392 0.695122 0.704625 0.706637 0.699265 0.698759
          0.69562 0.701928 0.712073 0.696711 0.707142 0.714013
          0.71231 0.700007 0.716184 0.70323 0.710081 0.70424
          0.714645 0.710545 0.713225 0.705775 0.708399 0.703755
          0.709138 0.704406 0.715531 0.580029 0.694281 0.718118
          0.699689 0.700184 0.684216 0.712805 0.696717 0.701589
          0.700565 0.696885 0.697131 0.700515 0.696523 0.706096
          0.700965 0.705383 0.693841 0.706461 0.702768 0.705459
          0.686072 0.688921 0.695569 0.697316 0.712576 0.707262
          0.694968 0.698453 0.69365 0.697395 0.700303 0.706853
          0.56222 0.687145 0.692543 0.695972 0.691537 0.687318
          0.691726 0.698694 0.692047 0.702193 0.702171 0.700085
          0.708855 0.700511 0.699969 0.705824 0.707153 0.687305
          0.704776 0.694128 0.700834 0.690325 0.689077 0.683086
          0.693268 0.687587 0.678182 0.705513 0.693801 0.694039
          0.688885 0.693802 0.695452 0.586763 0.69881 0.702486
          0.699129 0.688988 0.702696 0.688957 0.707245 0.708743
          0.703856 0.690453 0.699781 0.698984 0.694658 0.7025
          0.697575 0.706652 0.696285 0.723554 0.692218 0.697477
          0.70188 0.699578 0.695 0.708962 0.716575 0.702894
          0.693009 0.699531 0.714315 0.712618 0.710773 0.699298
          0.572264 0.687001 0.690057 0.689103 0.680724 0.690295
          0.684257 0.700448 0.717639 0.704051 0.685216 0.690914
          0.706031 0.714063 0.696741 0.699657 0.691156 0.699805
          0.704682 0.689098 0.706585 0.705293 0.699873 0.698047
          0.690742 0.713901 0.711411 0.71782 0.714172 0.700932
          0.718248 0.712371 0.719373 0.568586 0.684636 0.679839
          0.69478 0.689447 0.699504 0.677727 0.665515 0.707685
          0.69548 0.691731 0.714156 0.705885 0.700823 0.700163
          0.690017 0.701771 0.715769 0.705453 0.699204 0.684345
          0.69037 0.693183 0.688535 0.70288 0.695042 0.697656
          0.686908 0.695257 0.675601 0.699789 0.687063 0.690399
          0.560762 0.686903 0.690709 0.693888 0.689063 0.692891
          0.686709 0.702933 0.693808 0.7059 0.702731 0.705547
          0.697376 0.696659 0.697703 0.702782 0.712486 0.693615
          0.697695 0.690946 0.704519 0.6939 0.705593 0.697919
          0.716354 0.712341 0.699624 0.701044 0.710459 0.697499
          0.717375 0.708985 0.719852 0.58425 0.70024 0.705143
          0.711385 0.690056 0.691753 0.7022 0.70886 0.700959
          0.704124 0.7125 0.696485 0.696542 0.706786 0.694919
          0.694718 0.70631 0.698816 0.69463 0.693146 0.70149
          0.699007 0.701914 0.697458 0.713782 0.712725 0.716787
          0.707397 0.702254 0.703525 0.709696 0.699015 0.709734
          0.598046 0.705113 0.69406 0.706004 0.695958 0.705603
          0.711171 0.691228 0.698173 0.704533 0.70727 0.710189
          0.714532 0.69601 0.693668 0.713028 0.696138 0.704538
          0.68973 0.694691 0.707878 0.708934 0.722468 0.703071
          0.691016 0.714696 0.711917 0.698925 0.696131 0.705219
          0.712376 0.715698 0.715627 0.573221 0.684561 0.690948
          0.688442 0.67809 0.685188 0.696053 0.714082 0.696493
          0.70237 0.695577 0.699344 0.711452 0.711972 0.699803
          0.700258 0.702509 0.706413 0.701868 0.71907 0.698913
          0.692302 0.684276 0.686359 0.671897 0.687185 0.681928
          0.69183 0.684698 0.688728 0.693377 0.691081 0.69321
          0.591251 0.69825 0.695374 0.719272 0.691158 0.707408
          0.711426 0.700517 0.697435 0.689748 0.699048 0.697733
          0.705404 0.700474 0.69244 0.709247 0.703878 0.702127
          0.698251 0.710196 0.696069 0.699577 0.696762 0.678888
          0.690527 0.695227 0.687031 0.693056 0.695613 0.689757
          0.705875 0.694242 0.699481 0.57924 0.698678 0.68882
          0.705102 0.712093 0.69694 0.700681 0.71211 0.696628
          0.700253 0.6965 0.703731 0.701334 0.695247 0.706968
          0.695409 0.690514 0.701619 0.712837 0.687459 0.691812
          0.702336 0.685436 0.685586 0.687677 0.694098 0.68826
          0.695294 0.702349 0.682492 0.68837 0.697291 0.694702
          0.565195 0.682238 0.692612 0.694477 0.68916 0.679223
          0.682457 0.697012 0.679577 0.696314 0.701677 0.689838
          0.702928 0.709722 0.705822 0.69531 0.709089 0.706531
          0.69955 0.69403 0.709925 0.705401 0.703383 0.706874
          0.71446 0.705188 0.724856 0.724804 0.718061 0.715249
          0.70857 0.711526 0.716992 0.570708 0.693164 0.69352
          0.707726 0.703692 0.70598 0.697115 0.700279 0.691528
          0.702002 0.68527 0.690736 0.701168 0.709181 0.699586
          0.697303 0.687626 0.70379 0.693033 0.696146 0.686767
          0.68244 0.689837 0.69186 0.687595 0.6903 0.695876
          0.699861 0.687222 0.680163 0.698015 0.67365 0.677973
          0.567727 0.680977 0.68186 0.690561 0.687571 0.696345
          0.697194 0.691118 0.693617 0.700365 0.700766 0.700545
          0.704539 0.698769 0.692274 0.698202 0.701903 0.71432
          0.699279 0.689169 0.682528 0.686651 0.693761 0.690219
          0.698951 0.687908 0.692676 0.694503 0.697423 0.708701
          0.702374 0.685943 0.693257 0.565169 0.696601 0.684432
          0.679582 0.690622 0.685848 0.693137 0.714091 0.701599
          0.694064 0.692054 0.700258 0.686265 0.71512 0.692832
          0.709861 0.692938 0.697967 0.709605 0.702417 0.703812
          0.720865 0.70467 0.70569 0.708588 0.71193 0.704928
          0.700619 0.712147 0.701118 0.714861 0.703774 0.717998
          0.55604 0.687058 0.684888 0.686529 0.689089 0.679252
          0.688122 0.70947 0.69148 0.696233 0.710084 0.710003
          0.707102 0.693738 0.704009 0.694925 0.692105 0.701411
          0.698875 0.695416 0.691257 0.695797 0.679581 0.690146
          0.692992 0.689515 0.695548 0.684239 0.697389 0.689577
          0.701626 0.696183 0.708663 0.582513 0.698347 0.70035
          0.698178 0.706997 0.69042 0.707952 0.703772 0.702624
          0.698302 0.693308 0.703484 0.699305 0.708968 0.700066
          0.703947 0.695538 0.698615 0.715229 0.69319 0.696107
          0.691383 0.695821 0.67665 0.689536 0.683243 0.696343
          0.692762 0.684835 0.688705 0.692257 0.692117 0.686677
          0.576539 0.710314 0.706281 0.715426 0.717355 0.688445
          0.697629 0.706121 0.710819 0.697388 0.711894 0.697786
          0.696953 0.706515 0.696867 0.705459 0.700041 0.698648
          0.704174 0.70196 0.686433 0.692699 0.671988 0.700415
          0.690577 0.693964 0.68534 0.695285 0.692755 0.697992
          0.696359 0.684165 0.68649 0.587859 0.693535 0.697685
          0.694857 0.703566 0.702536 0.725213 0.692885 0.706695
          0.705298 0.69381 0.709228 0.702253 0.699685 0.715156
          0.692842 0.705669 0.695271 0.705232 0.691529 0.712281
          0.706999 0.714534 0.708562 0.700426 0.710772 0.716633
          0.699814 0.72196 0.713293 0.709188 0.702992 0.698729
          0.583826 0.70754 0.694771 0.727467 0.695218 0.690847
          0.695018 0.702339 0.703515 0.705759 0.708066 0.699692
          0.694429 0.716507 0.691513 0.710278 0.705909 0.684962
          0.693192 0.692953 0.724535 0.693136 0.705359 0.696579
          0.698158 0.722427 0.70949 0.713452 0.71749 0.723937
          0.717987 0.706916 0.714694 0.587979 0.718755 0.701101
          0.695225 0.706701 0.699107 0.697798 0.713911 0.705216
          0.69916 0.694363 0.698625 0.708209 0.706457 0.707623
          0.704624 0.687899 0.709085 0.697216 0.683119 0.702486
          0.712206 0.724653 0.701511 0.708806 0.716513 0.706244
          0.728964 0.717043 0.709028 0.720836 0.700183 0.69465
          0.579873 0.692795 0.690898 0.706833 0.712432 0.694635
          0.692296 0.698872 0.712152 0.70617 0.69101 0.69288
          0.703128 0.703502 0.715337 0.687398 0.702752 0.692019
          0.706213 0.708485 0.684242 0.685105 0.686084 0.695251
          0.693444 0.707326 0.699831 0.688529 0.691914 0.702292
          0.689902 0.688114 0.690957 0.582336 0.696325 0.70124
          0.689757 0.693913 0.690848 0.713742 0.699267 0.701353
          0.699764 0.706293 0.6963 0.693471 0.691201 0.71539
          0.69656 0.697279 0.691017 0.70622 0.694805 0.699517
          0.684221 0.69031 0.686461 0.685411 0.698935 0.686737
          0.696286 0.698046 0.693177 0.685503 0.697951 0.694911
          0.575423 0.711624 0.701295 0.710473 0.696036 0.692299
          0.703765 0.705248 0.711089 0.704672 0.698212 0.707135
          0.697447 0.717078 0.688479 0.71026 0.691019 0.702491
          0.709186 0.701967 0.68909 0.697191 0.679852 0.674632
          0.695248 0.689181 0.683146 0.686301 0.684579 0.688045
          0.695981 0.683542 0.688658 0.565188 0.696928 0.68799
          0.689031 0.706649 0.696308 0.694155 0.700317 0.689176
          0.693761 0.706073 0.69766 0.695797 0.713738 0.706442
          0.701535 0.70155 0.687476 0.716758 0.701873 0.678146
          0.690357 0.684202 0.689 0.698746 0.688052 0.689328
          0.687004 0.690726 0.703944 0.70514 0.689844 0.692165
          0.573547 0.707663 0.70628 0.714668 0.698294 0.695907
          0.698065 0.708038 0.695324 0.7113 0.699127 0.696526
          0.706878 0.695329 0.713598 0.708649 0.689396 0.715117
          0.696468 0.691829 0.693034 0.682241 0.682893 0.690818
          0.692718 0.674398 0.68379 0.698026 0.702495 0.684554
          0.68867 0.688383 0.694962 0.573255 0.709028 0.707986
          0.690698 0.708094 0.688391 0.706448 0.695212 0.708754
          0.70032 0.705211 0.697412 0.69051 0.716058 0.697304
          0.696727 0.704107 0.695576 0.705934 0.684574 0.6988
          0.693995 0.677778 0.701346 0.687571 0.691167 0.682862
          0.687861 0.695481 0.707417 0.690722 0.693925 0.689432
          0.565403 0.686796 0.693283 0.699255 0.68956 0.681998
          0.687252 0.699082 0.689579 0.712924 0.693581 0.707675
          0.700707 0.700038 0.692811 0.705287 0.700341 0.694546
          0.699276 0.694158 0.717405 0.712239 0.707929 0.711126
          0.722745 0.713419 0.710808 0.704358 0.71171 0.706278
          0.70051 0.711856 0.709646 0.560105 0.690198 0.693098
          0.687628 0.690872 0.687945 0.704732 0.696101 0.676546
          0.684325 0.711723 0.71011 0.708223 0.704427 0.692651
          0.704056 0.698938 0.693383 0.702834 0.697935 0.710398
          0.711847 0.696485 0.692587 0.707427 0.702394 0.703015
          0.711967 0.700883 0.705683 0.717858 0.722061 0.705668
          0.582925 0.712234 0.68538 0.700308 0.703083 0.701539
          0.704945 0.689088 0.702582 0.706567 0.716365 0.689632
          0.694748 0.704224 0.701573 0.699507 0.700936 0.692634
          0.704094 0.691163 0.703267 0.706322 0.7088 0.696417
          0.698151 0.719873 0.706421 0.708949 0.711255 0.71783
          0.71278 0.706646 0.704902 0.566145 0.686115 0.680997
          0.698592 0.675013 0.689095 0.68965 0.704778 0.681407
          0.710449 0.696585 0.692001 0.697192 0.706495 0.690137
          0.690915 0.69249 0.712338 0.694596 0.707649 0.689987
          0.693043 0.686442 0.700668 0.696002 0.692055 0.691911
          0.700794 0.689898 0.689066 0.694636 0.689895 0.702294
          0.573468 0.698853 0.704675 0.679305 0.686284 0.684349
          0.700263 0.68222 0.695179 0.691786 0.706691 0.700022
          0.698139 0.700311 0.704174 0.684112 0.700752 0.699445
          0.700653 0.703909 0.691658 0.700438 0.690909 0.69843
          0.684607 0.686133 0.699391 0.689607 0.6849 0.692225
          0.694271 0.697926 0.685973 0.553398 0.671871 0.698855
          0.697846 0.688514 0.680939 0.692613 0.702696 0.689421
          0.695189 0.689602 0.695198 0.702198 0.686865 0.69165
          0.694285 0.705623 0.703082 0.692136 0.698359 0.702386
          0.698355 0.690666 0.714096 0.708639 0.705365 0.692023
          0.692391 0.694599 0.691808 0.696966 0.683956 0.697879
          0.55863 0.680654 0.703449 0.695391 0.702901 0.694176
          0.69948 0.705259 0.685637 0.703728 0.704002 0.698717
          0.713393 0.7092 0.696092 0.700132 0.709341 0.697857
          0.703849 0.69789 0.694479 0.687481 0.699815 0.679477
          0.7039 0.693967 0.67809 0.692549 0.702094 0.701008
          0.678584 0.684031 0.690491 0.558095 0.670521 0.696721
          0.688293 0.678849 0.688183 0.68514 0.695752 0.686602
          0.702529 0.684969 0.714135 0.707698 0.7027 0.692198
          0.700153 0.704222 0.720009 0.694982 0.689298 0.704868
          0.705952 0.725951 0.704306 0.705917 0.705047 0.730163
          0.723477 0.700002 0.68784 0.703326 0.70146 0.722551
          0.600287 0.709139 0.70999 0.705186 0.688074 0.709821
          0.70673 0.70003 0.711891 0.705506 0.692997 0.701211
          0.705036 0.705124 0.693442 0.703788 0.701153 0.700545
          0.707057 0.707893 0.704786 0.695195 0.695439 0.700014
          0.708752 0.689022 0.707892 0.693048 0.696731 0.697616
          0.697762 0.705742 0.68436 0.579317 0.702768 0.694543
          0.719148 0.695611 0.700755 0.697685 0.694249 0.702407
          0.691859 0.705453 0.69357 0.703657 0.689789 0.717002
          0.703376 0.694873 0.698368 0.712181 0.703888 0.690032
          0.704951 0.695185 0.692774 0.682935 0.693748 0.684225
          0.673234 0.697693 0.685371 0.715365 0.692021 0.698055
          0.557383 0.704203 0.689709 0.700209 0.703894 0.698095
          0.698644 0.686408 0.703092 0.696616 0.688743 0.693666
          0.710146 0.690052 0.698629 0.709116 0.703366 0.690059
          0.70139 0.712303 0.696321 0.703391 0.696272 0.692078
          0.685291 0.691037 0.687214 0.696344 0.695025 0.697797
          0.685362 0.696283 0.695191 0.576917 0.715109 0.698595
          0.702893 0.691031 0.709707 0.693569 0.701172 0.702257
          0.699328 0.705984 0.684758 0.707368 0.706782 0.692474
          0.684847 0.708378 0.686174 0.6953 0.713305 0.712296
          0.709601 0.698475 0.721741 0.706922 0.711123 0.705416
          0.719584 0.709615 0.707624 0.705362 0.706299 0.712381
          0.579382 0.706338 0.703205 0.705755 0.70158 0.692336
          0.706079 0.696368 0.699465 0.690876 0.713003 0.69432
          0.691498 0.714864 0.707744 0.681936 0.703257 0.706151
          0.716276 0.69474 0.687104 0.690939 0.691646 0.685784
          0.698282 0.700209 0.691925 0.686402 0.685234 0.705281
          0.69559 0.703426 0.677857 0.578058 0.703781 0.703154
          0.705296 0.699785 0.702202 0.694054 0.702825 0.705872
          0.707014 0.705756 0.698213 0.691301 0.706256 0.705207
          0.70183 0.693907 0.689453 0.701751 0.704893 0.721903
          0.714411 0.704687 0.700824 0.707358 0.720919 0.706685
          0.713087 0.707345 0.709009 0.706338 0.693009 0.716577
          0.562744 0.669828 0.714127 0.692728 0.688011 0.684264
          0.688187 0.689978 0.697328 0.700914 0.683964 0.685071
          0.705338 0.693364 0.705422 0.692224 0.700142 0.699776
          0.697653 0.695104 0.717693 0.703688 0.707883 0.722799
          0.715464 0.712613 0.716353 0.718818 0.722052 0.703873
          0.71308 0.715393 0.729672 0.567081 0.68949 0.687881
          0.68322 0.687612 0.692 0.68331 0.70884 0.692745
          0.70971 0.700695 0.691928 0.71229 0.684481 0.709718
          0.698091 0.70723 0.691957 0.69599 0.710013 0.706879
          0.719301 0.702129 0.70123 0.708447 0.717907 0.713187
          0.706105 0.708351 0.707098 0.707914 0.708713 0.699457
          0.562167 0.686975 0.677462 0.684683 0.691005 0.679665
          0.693419 0.68822 0.696633 0.706623 0.699345 0.706594
          0.697379 0.706582 0.700406 0.696556 0.693727 0.695586
          0.699575 0.700792 0.711953 0.71648 0.720579 0.709072
          0.690188 0.705244 0.705794 0.702216 0.719119 0.710242
          0.712707 0.714115 0.712155 0.589933 0.707657 0.695527
          0.710325 0.710374 0.697784 0.693582 0.70641 0.705228
          0.692301 0.712031 0.701558 0.701994 0.714224 0.710579
          0.708893 0.692828 0.691731 0.687819 0.697275 0.708172
          0.711672 0.71438 0.698714 0.700186 0.706196 0.711421
          0.713275 0.711218 0.702276 0.709401 0.707869 0.716053
          0.561493 0.677058 0.717962 0.694493 0.693573 0.689984
          0.689485 0.677027 0.691239 0.700266 0.702741 0.684262
          0.700975 0.698609 0.715467 0.69098 0.687184 0.706125
          0.695712 0.708986 0.703844 0.688053 0.678726 0.688591
          0.709819 0.701741 0.681075 0.688037 0.684856 0.700233
          0.702062 0.696008 0.684238 0.594733 0.694663 0.701695
          0.71007 0.688513 0.702459 0.711782 0.703474 0.691916
          0.709634 0.720016 0.698329 0.704927 0.694208 0.718519
          0.691654 0.701062 0.69548 0.703317 0.696001 0.698633
          0.691021 0.682463 0.691466 0.698645 0.69327 0.711368
          0.710001 0.699727 0.694057 0.697269 0.698609 0.696305
          0.570712 0.679377 0.687987 0.703932 0.682868 0.6858
          0.694434 0.710638 0.698559 0.700696 0.682489 0.682451
          0.697328 0.703584 0.714677 0.696238 0.700971 0.696249
          0.693308 0.705395 0.691889 0.692718 0.701034 0.705178
          0.6989 0.696893 0.683739 0.693231 0.696391 0.691382
          0.680029 0.704334 0.704049 0.559085 0.692068 0.703909
          0.686388 0.686199 0.688362 0.674626 0.694962 0.69341
          0.702647 0.707926 0.688122 0.70563 0.688684 0.706019
          0.697647 0.696615 0.690072 0.688981 0.705545 0.71144
          0.714114 0.702916 0.729806 0.725429 0.709354 0.709684
          0.716719 0.702015 0.69705 0.703218 0.71707 0.714755
          0.566005 0.680424 0.699613 0.690272 0.682872 0.676521
          0.682748 0.708322 0.688856 0.706302 0.697787 0.690326
          0.699824 0.683329 0.694152 0.709182 0.711482 0.703918
          0.70112 0.70793 0.712207 0.706145 0.698588 0.701473
          0.694349 0.693177 0.684356 0.701628 0.691829 0.690477
          0.702852 0.690045 0.702183 0.562052 0.689035 0.682604
          0.688095 0.694277 0.691314 0.69847 0.686226 0.688276
          0.70253 0.709513 0.712356 0.691265 0.711571 0.701787
          0.701818 0.703098 0.699881 0.693909 0.702812 0.706322
          0.684324 0.705364 0.672701 0.688869 0.694016 0.692367
          0.693785 0.691344 0.688463 0.693965 0.688276 0.686959
          0.5823 0.711322 0.680648 0.70386 0.710951 0.709336
          0.700367 0.692032 0.704418 0.697002 0.698441 0.694768
          0.700066 0.707299 0.696306 0.715967 0.699724 0.68626
          0.715629 0.685027 0.695203 0.712273 0.695348 0.701769
          0.713189 0.721741 0.703282 0.696747 0.711426 0.70738
          0.719398 0.71827 0.720283 0.583213 0.704613 0.691749
          0.709111 0.694084 0.706672 0.697992 0.7039 0.703142
          0.695874 0.705113 0.702209 0.690366 0.709544 0.691089
          0.704333 0.717214 0.690379 0.704992 0.690518 0.718873
          0.691935 0.695611 0.702171 0.716562 0.711085 0.690051
          0.713881 0.725897 0.705847 0.722667 0.713004 0.715429
          0.565726 0.672948 0.703002 0.686424 0.682862 0.689439
          0.691578 0.699337 0.687537 0.706565 0.692865 0.693357
          0.697639 0.684874 0.707426 0.693694 0.709969 0.703585
          0.696242 0.699158 0.709293 0.699593 0.68991 0.702064
          0.703067 0.697176 0.710986 0.702989 0.706463 0.703634
          0.702368 0.704956 0.705135 0.58149 0.697607 0.680367
          0.695673 0.70795 0.707329 0.688543 0.70213 0.689203
          0.706434 0.694839 0.714848 0.695263 0.703691 0.703285
          0.702663 0.702861 0.702231 0.695782 0.686399 0.699384
          0.714927 0.702903 0.706225 0.708793 0.709283 0.703437
          0.71316 0.708643 0.701326 0.712666 0.712159 0.714333
          0.570639 0.68801 0.698093 0.691182 0.680569 0.684002
          0.685131 0.718314 0.686623 0.69357 0.695657 0.689362
          0.692916 0.691221 0.69351 0.704956 0.696731 0.696599
          0.692065 0.702628 0.696879 0.691134 0.688741 0.686443
          0.699468 0.674698 0.68432 0.696608 0.685866 0.694283
          0.687889 0.688856 0.687435 0.565387 0.702796 0.694042
          0.686939 0.715385 0.700622 0.704523 0.700631 0.702502
          0.700929 0.698529 0.709342 0.705134 0.700282 0.697179
          0.700143 0.692292 0.706246 0.700096 0.70171 0.684021
          0.693989 0.688934 0.681628 0.691925 0.704019 0.701188
          0.686919 0.703134 0.686714 0.693036 0.693589 0.689885
          0.594599 0.701288 0.706932 0.693775 0.711533 0.699791
          0.70955 0.702817 0.693223 0.696774 0.703485 0.704568
          0.688684 0.696319 0.712342 0.700952 0.700435 0.696499
          0.700458 0.700193 0.708369 0.700582 0.679389 0.689839
          0.695003 0.70224 0.683624 0.684594 0.699851 0.677247
          0.690405 0.706894 0.685814 0.590967 0.705744 0.700219
          0.691583 0.70528 0.686326 0.704011 0.706791 0.703444
          0.695673 0.696447 0.701625 0.700278 0.697577 0.695474
          0.689463 0.69981 0.690861 0.705359 0.697359 0.688413
          0.680421 0.673856 0.69844 0.691385 0.705591 0.688591
          0.694195 0.706187 0.695091 0.70288 0.681093 0.685787
          0.563963 0.679165 0.704471 0.689959 0.692607 0.684813
          0.689975 0.692781 0.683301 0.695507 0.697821 0.685745
          0.727714 0.698284 0.701299 0.695595 0.712757 0.694611
          0.699639 0.69327 0.706029 0.71333 0.712349 0.717721
          0.711642 0.714218 0.695618 0.717448 0.712232 0.707348
          0.71304 0.722031 0.710439 0.556499 0.673032 0.692541
          0.682637 0.677062 0.6838 0.697722 0.708999 0.693855
          0.715886 0.694336 0.692251 0.698974 0.704288 0.696466
          0.696929 0.69907 0.709827 0.68702 0.703898 0.684565
          0.692774 0.689619 0.686302 0.70732 0.688688 0.698719
          0.689378 0.685336 0.688347 0.689212 0.694777 0.681939
          0.559721 0.689088 0.70263 0.693689 0.696369 0.68252
          0.679244 0.698314 0.689415 0.699751 0.700392 0.701916
          0.693289 0.694536 0.704652 0.702824 0.702446 0.693566
          0.70013 0.693793 0.709149 0.730154 0.704204 0.713751
          0.714001 0.709295 0.712786 0.7114 0.715383 0.719737
          0.719424 0.709554 0.69849 0.560154 0.700325 0.709281
          0.69836 0.699321 0.694019 0.692236 0.693882 0.6918
          0.714476 0.684673 0.694545 0.704543 0.687821 0.695701
          0.695071 0.705668 0.710271 0.685333 0.70327 0.69192
          0.703923 0.711564 0.706555 0.697127 0.691039 0.68651
          0.694569 0.689144 0.681364 0.677167 0.700451 0.685192
          0.5841 0.700326 0.706495 0.694103 0.704257 0.687643
          0.702748 0.688708 0.696641 0.700037 0.694746 0.69404
          0.695614 0.695452 0.707798 0.707164 0.688503 0.712865
          0.700602 0.696151 0.698113 0.695954 0.705886 0.696401
          0.691981 0.703617 0.697959 0.694283 0.686492 0.700629
          0.708628 0.683721 0.695374 0.581071 0.690642 0.697132
          0.701767 0.699311 0.710645 0.689595 0.707903 0.687756
          0.705043 0.689877 0.689801 0.711985 0.697902 0.701557
          0.690011 0.690902 0.689899 0.699709 0.697053 0.702005
          0.680763 0.700612 0.690983 0.705177 0.706006 0.708792
          0.696529 0.705641 0.703083 0.687936 0.690443 0.698102
          0.584057 0.690416 0.692915 0.6988 0.682636 0.703592
          0.689954 0.698468 0.691337 0.680814 0.681241 0.690741
          0.707232 0.707736 0.690956 0.686905 0.710066 0.709678
          0.704617 0.68957 0.693683 0.702409 0.705993 0.694716
          0.71199 0.705589 0.685194 0.718308 0.721206 0.699818
          0.697914 0.696396 0.711625 0.577498 0.693633 0.68305
          0.689041 0.686833 0.687501 0.693342 0.690232 0.709775
          0.682803 0.696077 0.688262 0.692497 0.711176 0.703271
          0.704177 0.69707 0.702875 0.704487 0.707418 0.691966
          0.692587 0.702975 0.676488 0.693123 0.698718 0.695731
          0.68493 0.699592 0.686796 0.700234 0.687396 0.684197
          0.579717 0.715369 0.706098 0.698783 0.705135 0.707826
          0.69524 0.702369 0.69724 0.70414 0.70433 0.695712
          0.694867 0.70636 0.702133 0.695465 0.694115 0.701847
          0.700045 0.713508 0.678988 0.675472 0.687121 0.686047
          0.693406 0.699696 0.687192 0.692693 0.683698 0.691173
          0.698423 0.702796 0.689407 0.580836 0.688602 0.693111
          0.70977 0.688836 0.69865 0.702278 0.704812 0.693373
          0.705224 0.698326 0.701584 0.709734 0.694026 0.704087
          0.702764 0.702646 0.682173 0.689934 0.706108 0.699671
          0.708773 0.698985 0.694451 0.704125 0.691171 0.70101
          0.702357 0.703995 0.696772 0.690705 0.705338 0.702676
          0.591545 0.696505 0.713249 0.692714 0.693111 0.701206
          0.696564 0.69369 0.699946 0.70277 0.694667 0.705514
          0.699921 0.696631 0.697107 0.690899 0.709636 0.702884
          0.684678 0.689949 0.703343 0.704438 0.709737 0.716759
          0.720007 0.711814 0.715048 0.703607 0.72571 0.70038
          0.709152 0.71334 0.705108 0.558419 0.678446 0.697089
          0.694332 0.684443 0.684394 0.694235 0.685011 0.69788
          0.691798 0.696864 0.698538 0.710309 0.697715 0.695823
          0.692073 0.70252 0.700351 0.706852 0.697887 0.713831
          0.714823 0.717438 0.721498 0.709617 0.69894 0.707748
          0.716534 0.696488 0.702945 0.720151 0.717925 0.712701
          0.569445 0.682536 0.700204 0.676877 0.688367 0.690913
          0.698564 0.695883 0.69764 0.678227 0.687748 0.701421
          0.7008 0.696564 0.70662 0.702012 0.708373 0.699643
          0.706794 0.687274 0.706114 0.72023 0.70729 0.71285
          0.717805 0.70869 0.710585 0.707749 0.715186 0.718002
          0.708195 0.71191 0.719802 0.582379 0.713783 0.706732
          0.69836 0.69669 0.705104 0.707425 0.707051 0.688824
          0.694407 0.709207 0.691658 0.702872 0.697187 0.697911
          0.691095 0.700197 0.715342 0.712195 0.705128 0.70443
          0.703512 0.700005 0.710087 0.705889 0.72022 0.712282
          0.707286 0.697642 0.710346 0.700302 0.71731 0.711876
          0.583214 0.681836 0.712682 0.692312 0.704471 0.685954
          0.708713 0.699827 0.718872 0.683961 0.688331 0.712229
          0.709341 0.696559 0.707836 0.707595 0.704031 0.702483
          0.702291 0.68429 0.699709 0.714384 0.717031 0.70829
          0.718532 0.70533 0.722667 0.727163 0.703422 0.702144
          0.696269 0.69746 0.697943 0.579763 0.688078 0.680002
          0.685702 0.700067 0.677687 0.680831 0.7035 0.695693
          0.712121 0.687061 0.708471 0.697548 0.703453 0.703061
          0.697718 0.68239 0.714564 0.699333 0.710481 0.716805
          0.714552 0.709497 0.70736 0.707098 0.717484 0.695953
          0.697079 0.704306 0.708116 0.727356 0.707704 0.709808
          0.587241 0.696022 0.698188 0.689779 0.701876 0.70176
          0.701497 0.704611 0.68593 0.70258 0.700336 0.696767
          0.704032 0.700348 0.690946 0.701665 0.706958 0.703986
          0.690685 0.694803 0.726855 0.720432 0.707066 0.697782
          0.709573 0.695508 0.706889 0.718639 0.700574 0.705334
          0.703597 0.708624 0.712374 0.564855 0.673403 0.690389
          0.70096 0.678218 0.69668 0.686331 0.684629 0.701573
          0.710747 0.699176 0.702851 0.696279 0.698971 0.688392
          0.693809 0.707607 0.700329 0.716165 0.692305 0.720686
          0.711077 0.696527 0.701571 0.719974 0.724193 0.704768
          0.712736 0.712127 0.70925 0.695144 0.70741 0.710427
          0.579657 0.721822 0.691501 0.706716 0.699362 0.69156
          0.703734 0.687471 0.675382 0.698941 0.706053 0.712048
          0.68872 0.715659 0.690419 0.715326 0.702708 0.695148
          0.701332 0.695002 0.704022 0.702669 0.716943 0.70008
          0.720087 0.715148 0.70631 0.702935 0.699913 0.701224
          0.717862 0.709007 0.716827 0.576967 0.686196 0.708104
          0.705257 0.685745 0.695667 0.691943 0.699813 0.703126
          0.698307 0.696679 0.691432 0.712151 0.68306 0.7121
          0.70238 0.704573 0.705299 0.692329 0.702022 0.694779
          0.701388 0.699293 0.708457 0.705409 0.699206 0.711642
          0.711388 0.700983 0.701134 0.696765 0.697912 0.703884
          0.587958 0.685602 0.692719 0.696741 0.688386 0.697101
          0.698713 0.699793 0.694117 0.700946 0.695236 0.698911
          0.710987 0.698954 0.705939 0.69693 0.691311 0.703935
          0.696811 0.697764 0.693875 0.711545 0.706571 0.71705
          0.701386 0.680364 0.686071 0.692398 0.695208 0.688648
          0.697198 0.689578 0.689305 0.599379 0.701211 0.702388
          0.707071 0.702719 0.711153 0.700743 0.701392 0.694621
          0.690373 0.697315 0.710115 0.691373 0.704639 0.707853
          0.706997 0.705588 0.679096 0.711735 0.697056 0.696605
          0.704771 0.690676 0.692131 0.698667 0.704997 0.688287
          0.70494 0.698911 0.704631 0.688269 0.708657 0.697213
          0.578705 0.701864 0.7004 0.71029 0.700823 0.700494
          0.699558 0.700345 0.703223 0.693428 0.692807 0.709313
          0.698538 0.710822 0.687178 0.70354 0.703611 0.685492
          0.713635 0.70847 0.694914 0.689111 0.716031 0.684493