<?xml version="1.0"?>
<VTKFile type="PolyData" version="0.1" byte_order="LittleEndian" header_type="UInt32" compressor="vtkZLibDataCompressor">
  <PolyData>
    <Piece NumberOfPoints="7920" NumberOfVerts="0" NumberOfLines="0" NumberOfStrips="0" NumberOfPolys="0">
      <PointData Scalars="Calcium Concentration">
        <DataArray type="Float32" Name="Calcium Concentration" format="ascii" RangeMin="0.585273027420044" RangeMax="0.7427560091018677">
          0.62547 0.708731 0.706091 0.694124 0.692963 0.694937
          0.695814 0.727073 0.705533 0.686391 0.702787 0.697599
          0.695984 0.703758 0.699897 0.698371 0.698877 0.700458
          0.691512 0.721468 0.689122 0.686766 0.689163 0.696904
          0.692013 0.69544 0.703384 0.69329 0.688822 0.690964
          0.711986 0.70006 0.682648 0.645108 0.69446 0.697338
          0.704023 0.693365 0.692975 0.692982 0.702952 0.699731
          0.704669 0.694172 0.702983 0.6983 0.694054 0.714393
          0.684918 0.710304 0.700593 0.690796 0.702575 0.6918
          0.702334 0.673386 0.681996 0.688429 0.692501 0.686068
          0.677631 0.688759 0.696585 0.693236 0.683931 0.692584
          0.607489 0.686557 0.704837 0.686916 0.68906 0.684671
          0.6977 0.692411 0.699833 0.699687 0.701161 0.696462
          0.686909 0.70519 0.706937 0.704954 0.708337 0.71513
          0.711933 0.702723 0.717135 0.7105 0.711846 0.693189
          0.715552 0.705837 0.699491 0.711164 0.712163 0.70219
          0.713025 0.702656 0.709827 0.619621 0.699948 0.704618
          0.70688 0.699697 0.689617 0.7107 0.692534 0.706193
          0.705402 0.691569 0.696569 0.701364 0.694908 0.707662
          0.696313 0.702238 0.701801 0.698061 0.708943 0.694958
          0.695005 0.689265 0.696516 0.689599 0.715959 0.699172
          0.693433 0.711334 0.696054 0.70624 0.694124 0.692454
          0.608639 0.683698 0.685933 0.702465 0.681569 0.68925
          0.687534 0.704671 0.694496 0.702089 0.702458 0.690781
          0.704065 0.703096 0.70836 0.695301 0.6923 0.695416
          0.689508 0.707709 0.69251 0.696189 0.692749 0.69012
          0.696506 0.686821 0.683306 0.702669 0.687424 0.691274
          0.69255 0.69876 0.692703 0.628493 0.699175 0.700561
          0.699843 0.698135 0.693467 0.69847 0.697027 0.71635
          0.705175 0.705989 0.699157 0.701945 0.704192 0.704338
          0.699441 0.706709 0.694851 0.70573 0.689731 0.70176
          0.70481 0.70009 0.700947 0.712265 0.706328 0.705497
          0.695935 0.691928 0.712827 0.725044 0.712005 0.710824
          0.618098 0.679598 0.683089 0.694326 0.689007 0.693807
          0.683805 0.694133 0.707408 0.713736 0.694785 0.698923
          0.702468 0.70886 0.697569 0.709899 0.687939 0.702143
          0.703131 0.688252 0.700904 0.703131 0.698836 0.709546
          0.695504 0.716769 0.70577 0.721173 0.722144 0.704883
          0.721545 0.71142 0.714037 0.613843 0.679792 0.688703
          0.690903 0.683641 0.692835 0.676465 0.67563 0.710338
          0.707483 0.685649 0.702933 0.699506 0.69744 0.69701
          0.690762 0.698097 0.698639 0.698444 0.702679 0.685915
          0.691235 0.677276 0.688541 0.703433 0.692232 0.690888
          0.688043 0.688841 0.672567 0.7043 0.686287 0.693055
          0.616777 0.700499 0.687303 0.696019 0.695892 0.689142
          0.683783 0.706292 0.701048 0.688949 0.697278 0.698691
          0.692262 0.69457 0.701638 0.705911 0.707045 0.687418
          0.690616 0.701341 0.699003 0.703268 0.714568 0.698878
          0.70747 0.723334 0.709696 0.695703 0.704367 0.707033
          0.710355 0.710451 0.717071 0.631369 0.700401 0.701154
          0.7127 0.705692 0.691043 0.70085 0.695053 0.689668
          0.693944 0.711445 0.692181 0.706554 0.70078 0.696295
          0.691025 0.699304 0.699496 0.687299 0.709776 0.701228
          0.694114 0.707459 0.70361 0.712658 0.715281 0.707459
          0.701691 0.702863 0.702747 0.718055 0.697456 0.705404
          0.63581 0.70206 0.701353 0.702493 0.696675 0.689566
          0.705108 0.700518 0.696533 0.700442 0.698755 0.703983
          0.694222 0.700675 0.702783 0.71499 0.693123 0.701179
          0.693843 0.695597 0.712429 0.705296 0.72599 0.693487
          0.697996 0.714472 0.706732 0.706533 0.703636 0.705463
          0.709059 0.712501 0.709457 0.617025 0.687164 0.69245
          0.68199 0.675289 0.684671 0.683456 0.709332 0.696084
          0.699256 0.70321 0.691975 0.701902 0.702036 0.706573
          0.688152 0.70131 0.709442 0.697923 0.716871 0.691678
          0.696002 0.686959 0.673499 0.680989 0.703185 0.678468
          0.683323 0.688753 0.689769 0.700282 0.698288 0.707387
          0.632053 0.698673 0.684066 0.719364 0.687882 0.711252
          0.710292 0.69288 0.701287 0.699071 0.691569 0.700396
          0.707587 0.690582 0.689943 0.695374 0.693467 0.704854
          0.690024 0.708637 0.689028 0.700659 0.691844 0.690811
          0.700136 0.695174 0.687191 0.694982 0.690612 0.698187
          0.695203 0.701556 0.695521 0.626249 0.696597 0.696955
          0.715795 0.699867 0.698421 0.705469 0.715534 0.708853
          0.702531 0.700244 0.700047 0.69422 0.698643 0.709457
          0.695267 0.691539 0.69823 0.704822 0.687182 0.69564
          0.694823 0.682386 0.680404 0.686747 0.694259 0.690301
          0.692115 0.69293 0.674262 0.695201 0.688889 0.692414
          0.610619 0.677941 0.694557 0.695081 0.685095 0.684283
          0.687366 0.705032 0.679663 0.699633 0.711258 0.694857
          0.697057 0.702695 0.703988 0.701434 0.704595 0.702955
          0.699571 0.69491 0.704511 0.707417 0.704514 0.710938
          0.707537 0.704816 0.715813 0.72236 0.713107 0.717875
          0.709311 0.710215 0.711683 0.626935 0.696626 0.693526
          0.720127 0.701452 0.703081 0.700785 0.703288 0.704044
          0.7078 0.705127 0.70399 0.701714 0.69622 0.696538
          0.696849 0.695301 0.703959 0.694942 0.705495 0.683479
          0.683233 0.695936 0.687932 0.687676 0.695989 0.695619
          0.689807 0.693011 0.681348 0.70533 0.679357 0.690827
          0.610148 0.689645 0.679096 0.685166 0.686356 0.695626
          0.690011 0.703183 0.696155 0.696887 0.697593 0.690061
          0.703739 0.685044 0.691191 0.694659 0.697506 0.717457
          0.689975 0.688758 0.691384 0.683185 0.691751 0.684726
          0.69077 0.689057 0.696645 0.701364 0.69602 0.70547
          0.700179 0.694429 0.690416 0.617637 0.682701 0.680415
          0.682885 0.697363 0.684464 0.686656 0.704185 0.701821
          0.706183 0.689254 0.696197 0.702618 0.710665 0.68788
          0.710696 0.69619 0.699004 0.706979 0.692365 0.709358
          0.722033 0.700314 0.70857 0.713575 0.723899 0.698843
          0.694687 0.705944 0.703591 0.72457 0.708258 0.719583
          0.599727 0.687932 0.687473 0.685573 0.702433 0.681365
          0.69753 0.708909 0.697446 0.703886 0.707786 0.704146
          0.704439 0.708429 0.711849 0.705169 0.702411 0.692025
          0.687998 0.705413 0.685935 0.704975 0.678404 0.683197
          0.701887 0.688955 0.683545 0.684282 0.703495 0.683539
          0.700406 0.693781 0.718687 0.628305 0.70534 0.709949
          0.695405 0.701801 0.700064 0.70073 0.696735 0.700616
          0.696252 0.69781 0.717518 0.699433 0.708993 0.70597
          0.707798 0.714638 0.694479 0.705925 0.694754 0.701558
          0.681869 0.689619 0.689225 0.691364 0.690725 0.682967
          0.696326 0.694762 0.686734 0.693148 0.683898 0.684749
          0.63139 0.712048 0.706039 0.717207 0.704016 0.681172
          0.700929 0.705634 0.712537 0.695849 0.7045 0.703744
          0.69849 0.700958 0.692382 0.707242 0.70799 0.708482
          0.694804 0.69936 0.692712 0.689068 0.67447 0.690868
          0.693692 0.691348 0.683849 0.695837 0.693573 0.697959
          0.703268 0.69354 0.692843 0.627779 0.714458 0.696195
          0.701511 0.695549 0.696302 0.726228 0.681821 0.709091
          0.700533 0.691951 0.710274 0.693358 0.705124 0.710315
          0.693631 0.695832 0.695601 0.707473 0.690837 0.703695
          0.702984 0.709851 0.705611 0.703417 0.71349 0.704254
          0.707452 0.717245 0.710111 0.708997 0.704962 0.703647
          0.625975 0.701618 0.692972 0.724294 0.697038 0.686633
          0.694194 0.702182 0.707113 0.691629 0.697569 0.705244
          0.706243 0.701427 0.682263 0.721519 0.704927 0.692922
          0.687343 0.697288 0.723649 0.686019 0.705099 0.698087
          0.706903 0.723539 0.709865 0.709445 0.714935 0.722502
          0.727049 0.713961 0.713078 0.632946 0.716245 0.695346
          0.697496 0.695382 0.692583 0.701355 0.705657 0.710288
          0.70077 0.696131 0.701493 0.716396 0.696806 0.703393
          0.707645 0.685149 0.705016 0.692443 0.69086 0.709647
          0.71689 0.722038 0.699008 0.715342 0.711378 0.715753
          0.714885 0.708038 0.703892 0.727202 0.716971 0.708028
          0.623044 0.694766 0.695711 0.700867 0.707382 0.702986
          0.696341 0.700102 0.718614 0.69859 0.690753 0.692304
          0.705275 0.689571 0.707442 0.69471 0.707785 0.684314
          0.69224 0.70581 0.683363 0.681993 0.689938 0.6847
          0.697627 0.704696 0.687783 0.693649 0.680255 0.693234
          0.689917 0.696272 0.687052 0.631432 0.690749 0.697349
          0.68432 0.70389 0.697432 0.708805 0.699348 0.704923
          0.69617 0.698566 0.697009 0.692042 0.693402 0.711783
          0.697924 0.700939 0.705777 0.702645 0.714866 0.689411
          0.688332 0.686956 0.690534 0.683794 0.696883 0.687387
          0.693257 0.702709 0.704387 0.68082 0.693767 0.70222
          0.625907 0.709571 0.697415 0.716322 0.707408 0.692344
          0.69372 0.696275 0.714892 0.701153 0.705474 0.706062
          0.684467 0.707675 0.692902 0.704861 0.701565 0.693689
          0.707706 0.697664 0.706501 0.684478 0.685426 0.679453
          0.691552 0.689773 0.681737 0.680898 0.681218 0.692379
          0.69286 0.686202 0.687607 0.622484 0.697591 0.689336
          0.688095 0.700667 0.689966 0.698456 0.711284 0.697526
          0.686473 0.697459 0.695508 0.690006 0.711092 0.700328
          0.694818 0.715365 0.686021 0.713178 0.706472 0.682405
          0.682903 0.694668 0.681717 0.691934 0.68595 0.689059
          0.683996 0.691276 0.70918 0.709952 0.692959 0.694434
          0.627986 0.7107 0.70567 0.701134 0.698882 0.698946
          0.699412 0.695985 0.70559 0.712554 0.699684 0.704231
          0.703265 0.695427 0.706268 0.700688 0.684975 0.699044
          0.693982 0.688978 0.693093 0.688647 0.684743 0.693635
          0.697831 0.679404 0.686159 0.693696 0.700042 0.686107
          0.696916 0.689078 0.689296 0.62843 0.708157 0.71492
          0.700011 0.708649 0.684735 0.699798 0.700063 0.704904
          0.689099 0.701807 0.699139 0.695528 0.699317 0.699346
          0.702848 0.698948 0.70601 0.701006 0.690428 0.696373
          0.696947 0.681486 0.693762 0.696394 0.688347 0.693462
          0.694033 0.699898 0.687172 0.699347 0.691619 0.687747
          0.607988 0.688531 0.687275 0.696845 0.686071 0.690034
          0.688862 0.697332 0.682888 0.70768 0.701158 0.706798
          0.687923 0.698749 0.693085 0.697994 0.716131 0.704897
          0.710829 0.693702 0.716614 0.70259 0.702854 0.719304
          0.724696 0.705122 0.712392 0.709195 0.709834 0.701435
          0.6975 0.714982 0.711212 0.605511 0.693578 0.691926
          0.688413 0.687115 0.685602 0.702332 0.688751 0.683355
          0.694458 0.716063 0.692232 0.702387 0.698572 0.690715
          0.707427 0.707952 0.694008 0.707953 0.696663 0.713301
          0.716585 0.702628 0.694081 0.705029 0.693557 0.702959
          0.71358 0.700924 0.704029 0.720633 0.719667 0.703296
          0.637015 0.705158 0.685493 0.703215 0.708217 0.695556
          0.707439 0.685117 0.709477 0.69609 0.706345 0.695001
          0.686793 0.704984 0.714295 0.706287 0.716122 0.700862
          0.695737 0.695243 0.698642 0.712385 0.708288 0.695568
          0.70416 0.712468 0.701286 0.705901 0.711425 0.713629
          0.722226 0.704786 0.698692 0.619393 0.697227 0.685364
          0.701939 0.675963 0.687607 0.688121 0.709299 0.681796
          0.711584 0.702842 0.691833 0.701539 0.708814 0.690005
          0.700262 0.700621 0.694085 0.689011 0.710603 0.690371
          0.697532 0.68907 0.702957 0.695972 0.70862 0.692422
          0.70717 0.689409 0.693675 0.687013 0.699059 0.696831
          0.628343 0.697891 0.707426 0.676385 0.682561 0.69096
          0.702309 0.691893 0.699342 0.693136 0.702696 0.691042
          0.717762 0.696036 0.694329 0.691602 0.698081 0.691403
          0.693047 0.711181 0.696274 0.700025 0.682965 0.702226
          0.69816 0.688031 0.692152 0.681755 0.6955 0.683819
          0.702293 0.692845 0.689472 0.592911 0.676177 0.697352
          0.70303 0.696366 0.688205 0.691285 0.705711 0.689382
          0.69492 0.690619 0.693226 0.697374 0.688975 0.706591
          0.686492 0.701024 0.702863 0.688613 0.698915 0.702474
          0.692525 0.691697 0.706262 0.70858 0.707407 0.694838
          0.689409 0.697743 0.694398 0.680252 0.6885 0.692813
          0.613378 0.688669 0.704192 0.698565 0.69417 0.68797
          0.702863 0.709801 0.692256 0.706155 0.711968 0.684635
          0.701738 0.711292 0.700373 0.705889 0.703065 0.696129
          0.707256 0.691155 0.687286 0.697688 0.701503 0.680934
          0.703197 0.691764 0.679369 0.690448 0.698764 0.700292
          0.678267 0.690154 0.680584 0.592249 0.687575 0.694385
          0.69475 0.676448 0.701831 0.697238 0.700406 0.684765
          0.701296 0.685071 0.708967 0.710033 0.702695 0.70249
          0.693884 0.710686 0.709748 0.702932 0.694006 0.714449
          0.705852 0.718858 0.711809 0.710252 0.710689 0.718862
          0.718108 0.708862 0.697029 0.709966 0.710139 0.720869
          0.634058 0.705154 0.700049 0.706399 0.69101 0.708664
          0.715807 0.702367 0.694654 0.714083 0.698234 0.696311
          0.69336 0.715543 0.697998 0.709068 0.699608 0.709084
          0.701372 0.699356 0.709523 0.698413 0.707098 0.70291
          0.70551 0.694711 0.686038 0.694462 0.696111 0.696041
          0.68323 0.711272 0.679823 0.623539 0.701329 0.696743
          0.701648 0.70533 0.705704 0.698472 0.706995 0.695984
          0.691762 0.705194 0.693543 0.702002 0.687943 0.708653
          0.698304 0.702116 0.696251 0.713047 0.7068 0.691304
          0.690302 0.688849 0.697132 0.692324 0.6899 0.68637
          0.689384 0.691512 0.702231 0.719621 0.693758 0.699355
          0.617282 0.709266 0.695108 0.705764 0.709489 0.703672
          0.708919 0.68893 0.699059 0.702115 0.693611 0.684612
          0.720417 0.693472 0.706763 0.714651 0.696736 0.696852
          0.695609 0.708627 0.694508 0.702623 0.691457 0.690804
          0.694156 0.702073 0.685994 0.694501 0.690376 0.689687
          0.687191 0.69187 0.696546 0.621599 0.718395 0.696985
          0.703623 0.695206 0.703471 0.700387 0.694084 0.702887
          0.699338 0.705917 0.697476 0.714611 0.696419 0.709146
          0.696314 0.724174 0.693186 0.689091 0.69767 0.722841
          0.702425 0.690148 0.716835 0.709105 0.706538 0.700401
          0.713187 0.706352 0.707721 0.708862 0.696792 0.720265
          0.628807 0.709791 0.705813 0.708572 0.696936 0.699114
          0.697382 0.698075 0.709808 0.704174 0.705386 0.696707
          0.68718 0.713054 0.699959 0.690507 0.704576 0.692907
          0.704556 0.696208 0.691039 0.696026 0.69896 0.687624
          0.697274 0.699165 0.688854 0.681986 0.68001 0.700752
          0.700779 0.694113 0.669205 0.620787 0.70196 0.697057
          0.704673 0.699138 0.700813 0.708108 0.704315 0.696917
          0.689205 0.70276 0.707184 0.691559 0.700784 0.70604
          0.697675 0.706913 0.684732 0.695111 0.699991 0.712933
          0.711363 0.70808 0.699627 0.713405 0.717556 0.699849
          0.716998 0.714522 0.711585 0.707515 0.708553 0.713598
          0.603667 0.677469 0.717952 0.684935 0.695692 0.689732
          0.687314 0.69378 0.696653 0.702768 0.682912 0.686514
          0.711318 0.698145 0.708563 0.683871 0.701851 0.700113
          0.691548 0.691871 0.718149 0.707191 0.707862 0.717225
          0.70678 0.714192 0.725223 0.721346 0.718346 0.706749
          0.701305 0.712532 0.720437 0.605804 0.686169 0.685444
          0.681079 0.687898 0.693743 0.68975 0.707433 0.690223
          0.712091 0.704849 0.687406 0.708716 0.685928 0.721059
          0.691559 0.71139 0.688152 0.698613 0.698466 0.716999
          0.718545 0.711835 0.700663 0.704902 0.719661 0.712276
          0.701083 0.708394 0.701489 0.70011 0.706288 0.712818
          0.605159 0.694827 0.677148 0.684458 0.696298 0.68151
          0.696494 0.703061 0.704506 0.701489 0.698398 0.702186
          0.684135 0.70036 0.687892 0.698903 0.703346 0.688649
          0.686889 0.701253 0.699746 0.719574 0.706531 0.698737
          0.708079 0.699824 0.709102 0.703448 0.711762 0.708907
          0.709508 0.718866 0.717718 0.642405 0.706299 0.690533
          0.707406 0.702708 0.690218 0.691141 0.701555 0.709264
          0.697428 0.705306 0.706124 0.700557 0.71029 0.695638
          0.713069 0.698999 0.7006 0.698404 0.694362 0.702967
          0.711438 0.712222 0.695426 0.707409 0.702218 0.710147
          0.708326 0.703784 0.70927 0.719167 0.713205 0.706961
          0.610934 0.672892 0.711405 0.707513 0.710338 0.688326
          0.679622 0.680105 0.681372 0.694912 0.71158 0.685433
          0.704704 0.693948 0.7201 0.688053 0.69924 0.704258
          0.693906 0.697059 0.711136 0.689176 0.707643 0.691081
          0.701653 0.693287 0.681659 0.684866 0.687889 0.690392
          0.703067 0.685798 0.688783 0.625266 0.69465 0.69808
          0.700344 0.694333 0.703277 0.715388 0.697509 0.692815
          0.701307 0.703662 0.696478 0.696358 0.70311 0.708073
          0.693014 0.697062 0.693522 0.692119 0.699373 0.70295
          0.702267 0.681846 0.699412 0.697376 0.694381 0.705319
          0.708051 0.697293 0.697283 0.694766 0.687286 0.692204
          0.613376 0.689268 0.68582 0.700489 0.689645 0.687503
          0.699194 0.70331 0.692612 0.70103 0.682689 0.679436
          0.700487 0.706181 0.716002 0.695191 0.701132 0.703671
          0.694572 0.700188 0.696977 0.688333 0.706617 0.70608
          0.695211 0.689464 0.689991 0.694102 0.703926 0.685453
          0.6836 0.701779 0.707885 0.60307 0.692475 0.695989
          0.702973 0.677694 0.677419 0.685174 0.687571 0.696375
          0.704827 0.71644 0.686187 0.710269 0.703924 0.715855
          0.685771 0.693177 0.698668 0.69345 0.698423 0.715803
          0.712632 0.716135 0.71267 0.725399 0.717827 0.713226
          0.715427 0.707661 0.697381 0.700454 0.707439 0.709425
          0.607374 0.688241 0.700146 0.692848 0.686746 0.682955
          0.687464 0.709325 0.686739 0.705827 0.693973 0.697779
          0.708476 0.699058 0.700502 0.69845 0.708049 0.709607
          0.700122 0.699532 0.70785 0.71273 0.697975 0.707448
          0.687392 0.686907 0.69491 0.702403 0.689263 0.706594
          0.696213 0.684052 0.705469 0.619902 0.689703 0.683346
          0.68947 0.690651 0.697599 0.694591 0.686581 0.696831
          0.696906 0.703911 0.707328 0.70062 0.7152 0.712558
          0.70743 0.709104 0.698298 0.6861 0.713396 0.70099
          0.695639 0.708441 0.678461 0.697887 0.68666 0.690139
          0.689483 0.68877 0.687458 0.713386 0.696874 0.685125
          0.626987 0.695756 0.693414 0.700999 0.707471 0.702311
          0.706423 0.68352 0.714725 0.686104 0.695259 0.691679
          0.686204 0.707244 0.692997 0.717705 0.704835 0.681777
          0.70254 0.697793 0.703902 0.706336 0.697159 0.709779
          0.718646 0.71716 0.710535 0.690224 0.705215 0.704398
          0.724444 0.716444 0.721766 0.629934 0.704531 0.694487
          0.714248 0.693986 0.693341 0.690888 0.703582 0.716822
          0.710565 0.702974 0.701848 0.69041 0.704472 0.692406
          0.708327 0.7143 0.689551 0.691523 0.692362 0.712105
          0.699157 0.694551 0.700575 0.708658 0.700709 0.704361
          0.704099 0.714462 0.709811 0.726075 0.711122 0.709016
          0.603991 0.6824 0.70821 0.69072 0.682558 0.686524
          0.693398 0.706592 0.689699 0.705851 0.677143 0.702794
          0.703634 0.692953 0.708703 0.694727 0.696387 0.706794
          0.688572 0.70401 0.702622 0.701699 0.697186 0.703114
          0.70859 0.697704 0.704671 0.705856 0.702089 0.692727
          0.699221 0.697196 0.704035 0.631315 0.704851 0.703392
          0.700848 0.697209 0.710416 0.696985 0.709467 0.694205
          0.702894 0.703887 0.705051 0.698669 0.698735 0.698026
          0.695435 0.705814 0.697222 0.702732 0.686834 0.698255
          0.702129 0.706197 0.703504 0.711343 0.71194 0.708151
          0.708409 0.712764 0.701246 0.71106 0.712969 0.710882
          0.610886 0.687892 0.690433 0.691264 0.683648 0.682368
          0.682152 0.698179 0.701332 0.695588 0.699198 0.705739
          0.701408 0.68547 0.695529 0.719028 0.694433 0.694162
          0.69912 0.702547 0.703475 0.687391 0.689809 0.68971
          0.690206 0.675017 0.682637 0.699167 0.682713 0.688138
          0.690435 0.68754 0.699021 0.625642 0.71374 0.694726
          0.687107 0.71599 0.690301 0.699996 0.703505 0.701042
          0.695302 0.691727 0.711855 0.695077 0.695374 0.69716
          0.705431 0.693068 0.707963 0.702737 0.691127 0.686494
          0.695009 0.679776 0.695822 0.692189 0.694284 0.700853
          0.679111 0.700525 0.685086 0.685253 0.692122 0.69282
          0.631564 0.699407 0.704409 0.685284 0.714835 0.690123
          0.696766 0.703719 0.686605 0.695558 0.693109 0.709288
          0.695758 0.70469 0.707093 0.708545 0.701553 0.699546
          0.691985 0.700198 0.689682 0.694116 0.679322 0.682278
          0.698493 0.704753 0.685519 0.679737 0.69676 0.680051
          0.681837 0.708268 0.682057 0.636034 0.704277 0.706567
          0.697809 0.717908 0.677226 0.708862 0.712722 0.706577
          0.695362 0.702679 0.701387 0.694305 0.694336 0.687737
          0.692883 0.69905 0.695413 0.703275 0.7027 0.691524
          0.686892 0.676515 0.690362 0.696133 0.693176 0.67843
          0.694088 0.696912 0.699754 0.709676 0.680649 0.68194
          0.604643 0.675889 0.698789 0.694264 0.687587 0.680565
          0.687208 0.685691 0.67788 0.705329 0.697059 0.680852
          0.715169 0.69043 0.697224 0.694678 0.709949 0.702824
          0.695611 0.696861 0.711529 0.71063 0.718892 0.714556
          0.710716 0.724176 0.69922 0.726383 0.710604 0.705588
          0.70703 0.71128 0.715097 0.602432 0.675573 0.693616
          0.680398 0.679393 0.686071 0.69817 0.708126 0.693396
          0.710245 0.694614 0.697354 0.690849 0.703381 0.692143
          0.699068 0.702187 0.714606 0.693687 0.697123 0.685178
          0.694362 0.690838 0.696796 0.692635 0.689511 0.689683
          0.689588 0.686771 0.687583 0.682626 0.695175 0.687665
          0.615571 0.694136 0.703157 0.691619 0.699443 0.681551
          0.684538 0.686682 0.690498 0.697718 0.690406 0.705201
          0.703202 0.702309 0.695698 0.708951 0.693583 0.696814
          0.694396 0.701929 0.71123 0.723038 0.709549 0.719645
          0.707601 0.706388 0.720139 0.703551 0.711329 0.709448
          0.728455 0.702563 0.709349 0.606198 0.702053 0.711414
          0.69286 0.697809 0.695758 0.70721 0.698294 0.686636
          0.709835 0.68198 0.691874 0.706037 0.69345 0.704721
          0.696338 0.711054 0.708165 0.704294 0.701635 0.700879
          0.712237 0.702573 0.702502 0.707744 0.691874 0.685843
          0.691213 0.697107 0.686809 0.680646 0.690273 0.694661
          0.622498 0.693323 0.704579 0.705636 0.69421 0.707873
          0.711641 0.702514 0.695707 0.704612 0.691555 0.685708
          0.69472 0.698317 0.714841 0.695685 0.692573 0.705899
          0.703551 0.691987 0.69352 0.708878 0.703261 0.69474
          0.693215 0.715185 0.695087 0.699532 0.691421 0.703047
          0.695913 0.700733 0.693822 0.615424 0.695716 0.70122
          0.703722 0.690228 0.703877 0.698004 0.705407 0.688368
          0.695269 0.701369 0.692073 0.712752 0.71449 0.692486
          0.69837 0.695192 0.694293 0.698368 0.698359 0.707967
          0.689205 0.700692 0.691248 0.709328 0.702575 0.706346
          0.693211 0.709532 0.695323 0.685816 0.689585 0.694281
          0.623725 0.695787 0.695941 0.696455 0.67986 0.697545
          0.683566 0.695018 0.692287 0.682471 0.693545 0.699967
          0.711869 0.700253 0.692963 0.70272 0.704291 0.701697
          0.703262 0.700529 0.6974 0.701672 0.705093 0.698348
          0.705542 0.702857 0.693611 0.72524 0.717788 0.705881
          0.701095 0.701244 0.70541 0.620412 0.691164 0.680784
          0.688516 0.701244 0.694712 0.696255 0.692191 0.713439
          0.685695 0.691387 0.693597 0.688763 0.702005 0.699403
          0.694901 0.697681 0.703205 0.703308 0.714728 0.679845
          0.694022 0.700959 0.680747 0.69067 0.703488 0.677347
          0.691546 0.695504 0.674941 0.70152 0.69301 0.682905
          0.628586 0.710017 0.700887 0.699821 0.705328 0.69742
          0.70211 0.69696 0.700384 0.70056 0.700481 0.710428
          0.678493 0.701164 0.694761 0.703552 0.694031 0.689855
          0.702956 0.70895 0.677326 0.677424 0.689512 0.693724
          0.695062 0.695572 0.689649 0.689996 0.674565 0.698234
          0.696686 0.709375 0.689296 0.616116 0.693932 0.692382
          0.708142 0.685778 0.693566 0.693703 0.70552 0.687076
          0.700896 0.691188 0.701425 0.710297 0.696035 0.702233
          0.698454 0.690007 0.695899 0.696754 0.701837 0.691564
          0.711367 0.704997 0.696263 0.717782 0.693763 0.697327
          0.702481 0.704031 0.689136 0.690662 0.698841 0.695773
          0.639407 0.696579 0.707367 0.692495 0.699953 0.687976
          0.700683 0.700275 0.703602 0.696576 0.699364 0.702919
          0.702169 0.708692 0.702961 0.687324 0.701097 0.702433
          0.683444 0.692663 0.709149 0.712087 0.721164 0.711854
          0.716788 0.703139 0.700217 0.703427 0.714256 0.698328
          0.706695 0.709063 0.707832 0.59993 0.681929 0.692201
          0.684403 0.687853 0.68224 0.696608 0.69276 0.697568
          0.695016 0.694597 0.695487 0.703606 0.700256 0.696947
          0.699402 0.702416 0.704686 0.696235 0.693624 0.713114
          0.717698 0.715631 0.706752 0.714171 0.701353 0.702517
          0.711476 0.699538 0.703604 0.719366 0.724869 0.708808
          0.607669 0.689858 0.693346 0.675186 0.683072 0.701874
          0.694814 0.688745 0.699432 0.688333 0.69676 0.691287
          0.70544 0.707378 0.702148 0.69036 0.713001 0.691254
          0.697269 0.686588 0.706304 0.721259 0.705854 0.712149
          0.713063 0.720173 0.716029 0.70824 0.699933 0.7135
          0.70307 0.721341 0.724247 0.632901 0.714706 0.698921
          0.700951 0.702573 0.691755 0.714781 0.718239 0.691982
          0.694301 0.703976 0.690224 0.697526 0.70245 0.700093
          0.688383 0.713197 0.71099 0.694556 0.704613 0.703715
          0.702817 0.706874 0.709738 0.705305 0.709139 0.710027
          0.70616 0.70701 0.694742 0.698335 0.71551 0.709927
          0.624347 0.690534 0.71389 0.691351 0.704547 0.691312
          0.710034 0.70177 0.72122 0.677737 0.708853 0.706513
          0.709196 0.687728 0.701068 0.710966 0.698992 0.692841
          0.704274 0.692442 0.70757 0.706053 0.701383 0.70836
          0.710771 0.705074 0.721071 0.715626 0.70369 0.692079
          0.697013 0.695721 0.701001 0.618683 0.681985 0.673559
          0.687547 0.695803 0.683881 0.681258 0.717772 0.688158
          0.709794 0.680843 0.707464 0.695494 0.701333 0.703195
          0.692462 0.689801 0.703168 0.695098 0.717611 0.713428
          0.717322 0.717482 0.697371 0.707146 0.707334 0.705685
          0.696875 0.70265 0.712861 0.71115 0.706683 0.706988
          0.624623 0.695177 0.711274 0.698735 0.704355 0.697476
          0.709563 0.710582 0.688829 0.696043 0.697759 0.691666
          0.706701 0.682279 0.699203 0.710133 0.701084 0.708675
          0.693864 0.699959 0.72017 0.713826 0.711164 0.702822
          0.708267 0.702761 0.703179 0.711004 0.702288 0.698638
          0.700514 0.710754 0.720286 0.605842 0.677521 0.692061
          0.683185 0.681836 0.700989 0.681474 0.686579 0.692328
          0.702366 0.706111 0.705851 0.696134 0.704609 0.691305
          0.701916 0.708679 0.69886 0.711084 0.686213 0.716872
          0.718922 0.696178 0.694116 0.707001 0.731334 0.709976
          0.71108 0.706763 0.7083 0.696474 0.702204 0.705443
          0.632133 0.71949 0.688714 0.697168 0.700935 0.688762
          0.703093 0.696813 0.694226 0.693632 0.731 0.697483
          0.690509 0.701504 0.700098 0.712151 0.700702 0.694173
          0.697174 0.696805 0.703646 0.705677 0.707267 0.698731
          0.722495 0.715647 0.707864 0.707864 0.695195 0.704565
          0.714575 0.711657 0.722571 0.613055 0.692122 0.69091
          0.708112 0.682974 0.688632 0.695884 0.699653 0.691118
          0.698117 0.695726 0.692692 0.699673 0.689088 0.702892
          0.704313 0.696426 0.708303 0.694764 0.695942 0.698012
          0.702688 0.704056 0.707752 0.714169 0.69781 0.698367
          0.709682 0.699241 0.688774 0.691941 0.703708 0.703465
          0.623555 0.696803 0.689978 0.701263 0.696914 0.694417
          0.707436 0.703034 0.707485 0.706873 0.706102 0.684776
          0.707196 0.69997 0.700716 0.71366 0.698931 0.719011
          0.693607 0.701606 0.699464 0.706069 0.704363 0.700368
          0.692982 0.693902 0.680932 0.697549 0.691117 0.691121
          0.687333 0.693779 0.695255 0.639777 0.700064 0.697183
          0.709332 0.696105 0.694932 0.702225 0.693119 0.710223
          0.700251 0.694242 0.71231 0.6856 0.709567 0.700413
          0.708732 0.69604 0.686017 0.701092 0.704912 0.704111
          0.697475 0.689283 0.683546 0.693494 0.709266 0.693245
          0.696208 0.693098 0.697584 0.706426 0.696739 0.697053
          0.629928 0.703391 0.713376 0.703521 0.699284 0.701302
          0.699407 0.69398 0.710842 0.697204 0.689114 0.711299
          0.684655 0.711408 0.692338 0.707608 0.704257 0.683665
          0.701224 0.713591 0.687291 0.687504 0.705949 0.687709