<?xml version="1.0"?>
<VTKFile type="PolyData" version="0.1" byte_order="LittleEndian" header_type="UInt32" compressor="vtkZLibDataCompressor">
  <PolyData>
    <Piece NumberOfPoints="100" NumberOfVerts="0" NumberOfLines="0" NumberOfStrips="0" NumberOfPolys="0">
      <PointData Scalars="Calcium Concentration">
        <DataArray type="Float32" Name="Calcium Concentration" format="ascii" RangeMin="0.37098899483680725" RangeMax="0.40126898884773254">
          0.386821985244751 0.3772819936275482 0.385578989982605 0.386245995759964 0.3904080092906952 0.3822599947452545
          0.3852649927139282 0.39235401153564453 0.38510599732398987 0.3841550052165985 0.40126898884773254 0.3846459984779358
          0.38721799850463867 0.38655298948287964 0.3859260082244873 0.3977139890193939 0.3868350088596344 0.3962689936161041
          0.38499900698661804 0.384537011384964 0.3866190016269684 0.3974609971046448 0.38222700357437134 0.38871800899505615
          0.39611300826072693 0.38869500160217285 0.39562198519706726 0.3878670036792755 0.3836269974708557 0.38833698630332947
          0.382407009601593 0.3857550024986267 0.38164201378822327 0.3824959993362427 0.37290599942207336 0.38155698776245117
          0.3822900056838989 0.38437700271606445 0.38381001353263855 0.3908289968967438 0.39528799057006836 0.3940959870815277
          0.3796969950199127 0.3817110061645508 0.39673298597335815 0.39129000902175903 0.38166001439094543 0.38294699788093567
          0.39760199189186096 0.38167500495910645 0.3912610113620758 0.379940003156662 0.3787829875946045 0.39305999875068665
          0.38380199670791626 0.38544198870658875 0.39493799209594727 0.38166099786758423 0.38339999318122864 0.37101998925209045
          0.3817960023880005 0.3882719874382019 0.3819339871406555 0.39323800802230835 0.38771599531173706 0.3862519860267639
          0.3991599977016449 0.3867110013961792 0.3839209973812103 0.38528698682785034 0.3897950053215027 0.3852419853210449
          0.38647499680519104 0.3980399966239929 0.37967100739479065 0.3838199973106384 0.3855080008506775 0.3847070038318634
          0.39132198691368103 0.37818700075149536 0.3786570131778717 0.38668298721313477 0.39005500078201294 0.3890550136566162
          0.3908739984035492 0.3813689947128296 0.39759600162506104 0.39071500301361084 0.39467498660087585 0.3866100013256073
          0.38692599534988403 0.3719959855079651 0.395020991563797 0.39288100600242615 0.3848310112953186 0.38830000162124634
          0.3869839906692505 0.38971200585365295 0.37098899483680725 0.3860720098018646
        </DataArray>
      </PointData>
      <CellData>
      </CellData>
      <Points>
        <DataArray type="Float32" Name="Points" NumberOfComponents="3" format="ascii" RangeMin="61.46845834638652" RangeMax="227.43864591652869">
          83.36986541748047 146.42971801757812 63.55247116088867 65.7850341796875 143.8916473388672 91.66947937011719
          70.65457153320312 145.5850372314453 61.113372802734375 112.54823303222656 136.69082641601562 79.07354736328125
          92.24638366699219 136.1224365234375 113.7335433959961 57.158355712890625 141.79751586914062 97.58740997314453
          123.17342376708984 133.30931091308594 91.30724334716797 121.97010040283203 132.246337890625 102.19786071777344
          48.54634475708008 133.6905059814453 108.53092956542969 39.05238723754883 136.4833221435547 79.17929077148438
          109.92269134521484 132.63160705566406 42.32701873779297 93.18997192382812 125.81360626220703 38.12788772583008
          115.00080108642578 130.530517578125 41.84571075439453 97.31046295166016 123.78692626953125 130.24359130859375
          79.04051971435547 124.86549377441406 131.1570587158203 73.7258529663086 121.03192138671875 40.71259307861328
          135.71182250976562 122.82096099853516 111.6598129272461 64.49710845947266 116.85665893554688 134.25927734375
          51.13449478149414 118.18464660644531 128.55267333984375 154.36199951171875 122.4801025390625 74.54158782958984
          72.95675659179688 113.72171783447266 139.15383911132812 46.159854888916016 116.32070922851562 126.95894622802734
          29.268760681152344 124.26480102539062 41.44998550415039 43.483299255371094 125.64231872558594 25.1927433013916
          16.631778717041016 117.17754364013672 54.9161376953125 18.022018432617188 117.2853775024414 51.18217468261719
          134.10003662109375 107.44612121582031 132.31890869140625 12.317660331726074 111.57096099853516 81.5150146484375
          165.6173553466797 110.77758026123047 105.04905700683594 50.52140808105469 98.85968780517578 139.3077850341797
          79.08592987060547 101.56916046142578 11.671860694885254 143.69166564941406 99.19051361083984 135.3437042236328
          12.072940826416016 102.58927154541016 40.892520904541016 63.435176849365234 88.59239196777344 148.61181640625
          90.41368865966797 87.30534362792969 23.827669143676758 182.91539001464844 91.8104248046875 92.48336791992188
          1.208726167678833 88.94652557373047 71.5853271484375 18.644193649291992 89.7068099975586 26.38155746459961
          178.67222595214844 86.40458679199219 69.62757873535156 182.46095275878906 86.64697265625 104.5401382446289
          17.47745704650879 82.92425537109375 111.73272705078125 34.49752426147461 86.02027893066406 11.126437187194824
          72.78704071044922 83.8687744140625 2.551607608795166 181.420166015625 82.34306335449219 71.9863052368164
          182.8028564453125 82.19673919677734 77.23851776123047 104.20723724365234 78.17849731445312 151.24838256835938
          65.01918029785156 77.58934020996094 150.57058715820312 101.13575744628906 74.14009857177734 151.8936309814453
          62.00031280517578 76.94447326660156 0.00992700457572937 112.8551025390625 74.49068450927734 46.46080017089844
          184.5508270263672 71.78352355957031 94.3686752319336 143.32623291015625 71.05281829833984 144.6498260498047
          5.10506010055542 71.57598876953125 87.81238555908203 3.63340425491333 71.67506408691406 83.54942321777344
          1.6687277555465698 71.89974212646484 74.3840103149414 92.99320220947266 72.36003112792969 18.758390426635742
          99.62320709228516 71.93425750732422 29.70181655883789 157.1745147705078 62.07212829589844 137.07974243164062
          64.0318603515625 63.50381088256836 150.0834197998047 26.36224365234375 63.86994171142578 18.694942474365234
          100.90113067626953 60.187286376953125 152.43580627441406 2.6107800006866455 59.013648986816406 65.09844207763672
          117.53418731689453 65.48017120361328 48.811824798583984 149.927490234375 59.98503112792969 54.61875915527344
          121.50615692138672 54.98029708862305 148.79254150390625 132.06204223632812 51.17355728149414 143.89442443847656
          105.06230163574219 52.173126220703125 150.80653381347656 30.55713653564453 50.90155029296875 15.926862716674805
          101.97949981689453 59.88882064819336 34.70652770996094 104.3681411743164 54.917205810546875 30.898290634155273
          8.865464210510254 43.75998306274414 70.60160064697266 89.53885650634766 53.07740020751953 29.110145568847656
          89.4605712890625 53.040855407714844 29.025781631469727 134.83804321289062 46.52699279785156 36.392696380615234
          47.0462646484375 38.93244934082031 11.631245613098145 20.171890258789062 37.95119857788086 101.96855926513672
          135.88131713867188 38.53974533081055 35.33654022216797 145.30262756347656 32.33078384399414 124.98458862304688
          119.72461700439453 32.313507080078125 136.1024932861328 97.97132110595703 33.40671157836914 141.4903564453125
          142.95640563964844 25.541419982910156 117.48898315429688 123.1226577758789 28.35693359375 132.31248474121094
          68.09622192382812 30.830408096313477 137.8206024169922 54.626041412353516 30.03372573852539 133.13734436035156
          77.19390106201172 28.77220344543457 136.81019592285156 24.097911834716797 24.64498519897461 75.94550323486328
          33.68368148803711 22.877368927001953 105.27677154541016 125.14240264892578 16.31355094909668 47.72073745727539
          126.36846160888672 14.902108192443848 112.17803192138672 69.08578491210938 26.79279136657715 45.138633728027344
          130.94752502441406 15.868742942810059 65.54757690429688 97.89462280273438 15.804244995117188 123.8721923828125
          63.95354080200195 9.7102632522583 53.35749435424805 75.08870697021484 8.25019359588623 111.07200622558594
          115.28643798828125 7.94948673248291 69.51976013183594 65.03982543945312 4.540268898010254 60.35489273071289
          60.44655990600586 2.2728443145751953 72.87326049804688 98.65142822265625 6.3247857093811035 98.58387756347656
          72.21492767333984 3.680769205093384 93.34757232666016 92.09756469726562 4.572163105010986 94.81331634521484
          <InformationKey name="L2_NORM_RANGE" location="vtkDataArray" length="2">
            <Value index="0">
              61.468458346
            </Value>
            <Value index="1">
              227.43864592
            </Value>
          </InformationKey>
        </DataArray>
      </Points>
      <Verts>
        <DataArray type="Int64" Name="connectivity" format="ascii" RangeMin="1e+299" RangeMax="-1e+299">
        </DataArray>
        <DataArray type="Int64" Name="offsets" format="ascii" RangeMin="1e+299" RangeMax="-1e+299">
        </DataArray>
      </Verts>
      <Lines>
        <DataArray type="Int64" Name="connectivity" format="ascii" RangeMin="1e+299" RangeMax="-1e+299">
        </DataArray>
        <DataArray type="Int64" Name="offsets" format="ascii" RangeMin="1e+299" RangeMax="-1e+299">
        </DataArray>
      </Lines>
      <Strips>
        <DataArray type="Int64" Name="connectivity" format="ascii" RangeMin="1e+299" RangeMax="-1e+299">
        </DataArray>
        <DataArray type="Int64" Name="offsets" format="ascii" RangeMin="1e+299" RangeMax="-1e+299">
        </DataArray>
      </Strips>
      <Polys>
        <DataArray type="Int64" Name="connectivity" format="ascii" RangeMin="1e+299" RangeMax="-1e+299">
        </DataArray>
        <DataArray type="Int64" Name="offsets" format="ascii" RangeMin="1e+299" RangeMax="-1e+299">
        </DataArray>
      </Polys>
    </Piece>
  </PolyData>
</VTKFile>
